calculator: pwmat
nqpoint: 505    
npath: 5      
segment_nqpoint:
- 101
- 101
- 101
- 101
- 101
reciprocal_lattice:
- [   0.26562817,   0.00000000,   0.00000000 ] # a*
- [   0.00000000,   0.26562817,   0.00000000 ] # b*
- [   0.00000000,   0.00000000,   0.26562817 ] # c*
natom: 5      
lattice:
- [     3.764660929000000,     0.000000000000000,     0.000000000000000 ] # a
- [     0.000000000000000,     3.764660929000000,     0.000000000000000 ] # b
- [     0.000000000000000,     0.000000000000000,     3.764660929000000 ] # c
points:
- symbol: Ca # 1
  coordinates: [  0.000000000000000,  0.000000000000000,  0.000000000000000 ]
  mass: 40.078000
- symbol: Ti # 2
  coordinates: [  0.500000000000000,  0.500000000000000,  0.500000000000000 ]
  mass: 47.867000
- symbol: O  # 3
  coordinates: [  0.000000000000000,  0.500000000000000,  0.500000000000000 ]
  mass: 15.999400
- symbol: O  # 4
  coordinates: [  0.500000000000000,  0.000000000000000,  0.500000000000000 ]
  mass: 15.999400
- symbol: O  # 5
  coordinates: [  0.500000000000000,  0.500000000000000,  0.000000000000000 ]
  mass: 15.999400
supercell_matrix:
- [    4,    0,    0 ]
- [    0,    4,    0 ]
- [    0,    0,    4 ]

phonon:
- q-position: [    0.0000000,    0.0000000,    0.0000000 ]
  distance:    0.0000000
  label: '\Gamma'
  band:
  - # 1
    frequency:   -4.8995874959
  - # 2
    frequency:   -4.8995874959
  - # 3
    frequency:   -4.8995874959
  - # 4
    frequency:   -4.7639086065
  - # 5
    frequency:   -4.7639086065
  - # 6
    frequency:   -4.7639086065
  - # 7
    frequency:   -0.0000001880
  - # 8
    frequency:   -0.0000000824
  - # 9
    frequency:    0.0000001194
  - # 10
    frequency:    6.0943904787
  - # 11
    frequency:    6.0943904787
  - # 12
    frequency:    6.0943904787
  - # 13
    frequency:   20.6429314487
  - # 14
    frequency:   20.6429314487
  - # 15
    frequency:   20.6429314487

- q-position: [    0.0050000,    0.0000000,    0.0000000 ]
  distance:    0.0013281
  band:
  - # 1
    frequency:   -4.8990835045
  - # 2
    frequency:   -4.8989750957
  - # 3
    frequency:   -4.8989750957
  - # 4
    frequency:   -4.7634497258
  - # 5
    frequency:   -4.7634497258
  - # 6
    frequency:   -4.7598901015
  - # 7
    frequency:    0.0570822189
  - # 8
    frequency:    0.0570822189
  - # 9
    frequency:    0.1457168609
  - # 10
    frequency:    6.0942442809
  - # 11
    frequency:    6.0942442809
  - # 12
    frequency:    6.0974892419
  - # 13
    frequency:   20.6429051234
  - # 14
    frequency:   20.6429051234
  - # 15
    frequency:   20.6444677730

- q-position: [    0.0100000,    0.0000000,    0.0000000 ]
  distance:    0.0026563
  band:
  - # 1
    frequency:   -4.8975717167
  - # 2
    frequency:   -4.8971599830
  - # 3
    frequency:   -4.8971599830
  - # 4
    frequency:   -4.7620518447
  - # 5
    frequency:   -4.7620518447
  - # 6
    frequency:   -4.7478290452
  - # 7
    frequency:    0.1142044975
  - # 8
    frequency:    0.1142044975
  - # 9
    frequency:    0.2912223805
  - # 10
    frequency:    6.0938057662
  - # 11
    frequency:    6.0938057662
  - # 12
    frequency:    6.1067850919
  - # 13
    frequency:   20.6428261494
  - # 14
    frequency:   20.6428261494
  - # 15
    frequency:   20.6490759593

- q-position: [    0.0150000,    0.0000000,    0.0000000 ]
  distance:    0.0039844
  band:
  - # 1
    frequency:   -4.8950526916
  - # 2
    frequency:   -4.8942090215
  - # 3
    frequency:   -4.8942090215
  - # 4
    frequency:   -4.7596506506
  - # 5
    frequency:   -4.7596506506
  - # 6
    frequency:   -4.7277086209
  - # 7
    frequency:    0.1714068870
  - # 8
    frequency:    0.1714068870
  - # 9
    frequency:    0.4363065886
  - # 10
    frequency:    6.0930751713
  - # 11
    frequency:    6.0930751713
  - # 12
    frequency:    6.1222765858
  - # 13
    frequency:   20.6426945330
  - # 14
    frequency:   20.6426945330
  - # 15
    frequency:   20.6567536404

- q-position: [    0.0200000,    0.0000000,    0.0000000 ]
  distance:    0.0053126
  band:
  - # 1
    frequency:   -4.8915273617
  - # 2
    frequency:   -4.8902351786
  - # 3
    frequency:   -4.8902351786
  - # 4
    frequency:   -4.7561374441
  - # 5
    frequency:   -4.7561374441
  - # 6
    frequency:   -4.6995001490
  - # 7
    frequency:    0.2287294212
  - # 8
    frequency:    0.2287294212
  - # 9
    frequency:    0.5807622736
  - # 10
    frequency:    6.0920528919
  - # 11
    frequency:    6.0920528919
  - # 12
    frequency:    6.1439609092
  - # 13
    frequency:   20.6425102847
  - # 14
    frequency:   20.6425102847
  - # 15
    frequency:   20.6674968467

- q-position: [    0.0250000,    0.0000000,    0.0000000 ]
  distance:    0.0066407
  band:
  - # 1
    frequency:   -4.8869970326
  - # 2
    frequency:   -4.8853980695
  - # 3
    frequency:   -4.8853980695
  - # 4
    frequency:   -4.7513586195
  - # 5
    frequency:   -4.7513586195
  - # 6
    frequency:   -4.6631620685
  - # 7
    frequency:    0.2862121055
  - # 8
    frequency:    0.2862121055
  - # 9
    frequency:    0.7243864009
  - # 10
    frequency:    6.0907394848
  - # 11
    frequency:    6.0907394848
  - # 12
    frequency:    6.1718332673
  - # 13
    frequency:   20.6422734196
  - # 14
    frequency:   20.6422734196
  - # 15
    frequency:   20.6812999706

- q-position: [    0.0300000,    0.0000000,    0.0000000 ]
  distance:    0.0079688
  band:
  - # 1
    frequency:   -4.8814633843
  - # 2
    frequency:   -4.8799010801
  - # 3
    frequency:   -4.8799010801
  - # 4
    frequency:   -4.7451185761
  - # 5
    frequency:   -4.7451185761
  - # 6
    frequency:   -4.6186384259
  - # 7
    frequency:    0.3438949032
  - # 8
    frequency:    0.3438949032
  - # 9
    frequency:    0.8669815716
  - # 10
    frequency:    6.0891356700
  - # 11
    frequency:    6.0891356700
  - # 12
    frequency:    6.2058860469
  - # 13
    frequency:   20.6419839582
  - # 14
    frequency:   20.6419839582
  - # 15
    frequency:   20.6981557165

- q-position: [    0.0350000,    0.0000000,    0.0000000 ]
  distance:    0.0092970
  band:
  - # 1
    frequency:   -4.8749284716
  - # 2
    frequency:   -4.8739816951
  - # 3
    frequency:   -4.8739816951
  - # 4
    frequency:   -4.7371894350
  - # 5
    frequency:   -4.7371894350
  - # 6
    frequency:   -4.5658567793
  - # 7
    frequency:    0.4018177187
  - # 8
    frequency:    0.4018177187
  - # 9
    frequency:    1.0083575245
  - # 10
    frequency:    6.0872423346
  - # 11
    frequency:    6.0872423346
  - # 12
    frequency:    6.2461077633
  - # 13
    frequency:   20.6416419266
  - # 14
    frequency:   20.6416419266
  - # 15
    frequency:   20.7180550386

- q-position: [    0.0400000,    0.0000000,    0.0000000 ]
  distance:    0.0106251
  band:
  - # 1
    frequency:   -4.8678925028
  - # 2
    frequency:   -4.8678925028
  - # 3
    frequency:   -4.8673947251
  - # 4
    frequency:   -4.7273300884
  - # 5
    frequency:   -4.7273300884
  - # 6
    frequency:   -4.5047253841
  - # 7
    frequency:    0.4600203752
  - # 8
    frequency:    0.4600203752
  - # 9
    frequency:    1.1483326752
  - # 10
    frequency:    6.0850605372
  - # 11
    frequency:    6.0850605372
  - # 12
    frequency:    6.2924818152
  - # 13
    frequency:   20.6412473572
  - # 14
    frequency:   20.6412473572
  - # 15
    frequency:   20.7409870656

- q-position: [    0.0450000,    0.0000000,    0.0000000 ]
  distance:    0.0119533
  band:
  - # 1
    frequency:   -4.8618739511
  - # 2
    frequency:   -4.8618739511
  - # 3
    frequency:   -4.8588649524
  - # 4
    frequency:   -4.7153135097
  - # 5
    frequency:   -4.7153135097
  - # 6
    frequency:   -4.4351294739
  - # 7
    frequency:    0.5185425870
  - # 8
    frequency:    0.5185425870
  - # 9
    frequency:    1.2867356775
  - # 10
    frequency:    6.0825915122
  - # 11
    frequency:    6.0825915122
  - # 12
    frequency:    6.3449850783
  - # 13
    frequency:   20.6408002899
  - # 14
    frequency:   20.6408002899
  - # 15
    frequency:   20.7669390150

- q-position: [    0.0500000,    0.0000000,    0.0000000 ]
  distance:    0.0132814
  band:
  - # 1
    frequency:   -4.8561254668
  - # 2
    frequency:   -4.8561254668
  - # 3
    frequency:   -4.8493423394
  - # 4
    frequency:   -4.7009557095
  - # 5
    frequency:   -4.7009557095
  - # 6
    frequency:   -4.3569263792
  - # 7
    frequency:    0.5774239242
  - # 8
    frequency:    0.5774239242
  - # 9
    frequency:    1.4234069809
  - # 10
    frequency:    6.0798366768
  - # 11
    frequency:    6.0798366768
  - # 12
    frequency:    6.4035863767
  - # 13
    frequency:   20.6403007731
  - # 14
    frequency:   20.6403007731
  - # 15
    frequency:   20.7958960968

- q-position: [    0.0550000,    0.0000000,    0.0000000 ]
  distance:    0.0146095
  band:
  - # 1
    frequency:   -4.8507849491
  - # 2
    frequency:   -4.8507849491
  - # 3
    frequency:   -4.8388304518
  - # 4
    frequency:   -4.6841363292
  - # 5
    frequency:   -4.6841363292
  - # 6
    frequency:   -4.2699391255
  - # 7
    frequency:    0.6367037676
  - # 8
    frequency:    0.6367037676
  - # 9
    frequency:    1.5582003475
  - # 10
    frequency:    6.0767976370
  - # 11
    frequency:    6.0767976370
  - # 12
    frequency:    6.4682448807
  - # 13
    frequency:   20.6397488643
  - # 14
    frequency:   20.6397488643
  - # 15
    frequency:   20.8278414087

- q-position: [    0.0600000,    0.0000000,    0.0000000 ]
  distance:    0.0159377
  band:
  - # 1
    frequency:   -4.8459237518
  - # 2
    frequency:   -4.8459237518
  - # 3
    frequency:   -4.8273332369
  - # 4
    frequency:   -4.6648037556
  - # 5
    frequency:   -4.6648037556
  - # 6
    frequency:   -4.1739480038
  - # 7
    frequency:    0.6964212538
  - # 8
    frequency:    0.6964212538
  - # 9
    frequency:    1.6909842843
  - # 10
    frequency:    6.0734761963
  - # 11
    frequency:    6.0734761963
  - # 12
    frequency:    6.5389084900
  - # 13
    frequency:   20.6391446317
  - # 14
    frequency:   20.6391446317
  - # 15
    frequency:   20.8627558240

- q-position: [    0.0650000,    0.0000000,    0.0000000 ]
  distance:    0.0172658
  band:
  - # 1
    frequency:   -4.8415565008
  - # 2
    frequency:   -4.8415565008
  - # 3
    frequency:   -4.8148550255
  - # 4
    frequency:   -4.6429654120
  - # 5
    frequency:   -4.6429654120
  - # 6
    frequency:   -4.0686793908
  - # 7
    frequency:    0.7566152059
  - # 8
    frequency:    0.7566152059
  - # 9
    frequency:    1.8216433395
  - # 10
    frequency:    6.0698743643
  - # 11
    frequency:    6.0698743643
  - # 12
    frequency:    6.6155122650
  - # 13
    frequency:   20.6384881557
  - # 14
    frequency:   20.6384881557
  - # 15
    frequency:   20.9006178739

- q-position: [    0.0700000,    0.0000000,    0.0000000 ]
  distance:    0.0185940
  band:
  - # 1
    frequency:   -4.8376588068
  - # 2
    frequency:   -4.8376588068
  - # 3
    frequency:   -4.8014005343
  - # 4
    frequency:   -4.6186701633
  - # 5
    frequency:   -4.6186701633
  - # 6
    frequency:   -3.9537907618
  - # 7
    frequency:    0.8173240498
  - # 8
    frequency:    0.8173240498
  - # 9
    frequency:    1.9500792079
  - # 10
    frequency:    6.0659943669
  - # 11
    frequency:    6.0659943669
  - # 12
    frequency:    6.6979769769
  - # 13
    frequency:   20.6377795298
  - # 14
    frequency:   20.6377795298
  - # 15
    frequency:   20.9414036261

- q-position: [    0.0750000,    0.0000000,    0.0000000 ]
  distance:    0.0199221
  band:
  - # 1
    frequency:   -4.8341852106
  - # 2
    frequency:   -4.8341852106
  - # 3
    frequency:   -4.7869748679
  - # 4
    frequency:   -4.5919904985
  - # 5
    frequency:   -4.5919904985
  - # 6
    frequency:   -3.8288503155
  - # 7
    frequency:    0.8785857110
  - # 8
    frequency:    0.8785857110
  - # 9
    frequency:    2.0762115938
  - # 10
    frequency:    6.0618386578
  - # 11
    frequency:    6.0618386578
  - # 12
    frequency:    6.7862078437
  - # 13
    frequency:   20.6370188629
  - # 14
    frequency:   20.6370188629
  - # 15
    frequency:   20.9850865604

- q-position: [    0.0800000,    0.0000000,    0.0000000 ]
  distance:    0.0212503
  band:
  - # 1
    frequency:   -4.8310829081
  - # 2
    frequency:   -4.8310829081
  - # 3
    frequency:   -4.7715835219
  - # 4
    frequency:   -4.5630089420
  - # 5
    frequency:   -4.5630089420
  - # 6
    frequency:   -3.6933087759
  - # 7
    frequency:    0.9404374911
  - # 8
    frequency:    0.9404374911
  - # 9
    frequency:    2.1999787856
  - # 10
    frequency:    6.0574099313
  - # 11
    frequency:    6.0574099313
  - # 12
    frequency:    6.8800935193
  - # 13
    frequency:   20.6362062802
  - # 14
    frequency:   20.6362062802
  - # 15
    frequency:   21.0316374455

- q-position: [    0.0850000,    0.0000000,    0.0000000 ]
  distance:    0.0225784
  band:
  - # 1
    frequency:   -4.8283003036
  - # 2
    frequency:   -4.8283003036
  - # 3
    frequency:   -4.7552323855
  - # 4
    frequency:   -4.5318096435
  - # 5
    frequency:   -4.5318096435
  - # 6
    frequency:   -3.5464595035
  - # 7
    frequency:    1.0029159193
  - # 8
    frequency:    1.0029159193
  - # 9
    frequency:    2.3213379064
  - # 10
    frequency:    6.0527111363
  - # 11
    frequency:    6.0527111363
  - # 12
    frequency:    6.9795053894
  - # 13
    frequency:   20.6353419257
  - # 14
    frequency:   20.6353419257
  - # 15
    frequency:   21.0810242157

- q-position: [    0.0900000,    0.0000000,    0.0000000 ]
  distance:    0.0239065
  band:
  - # 1
    frequency:   -4.8257913693
  - # 2
    frequency:   -4.8257913693
  - # 3
    frequency:   -4.7379277451
  - # 4
    frequency:   -4.4984741667
  - # 5
    frequency:   -4.4984741667
  - # 6
    frequency:   -3.3873805288
  - # 7
    frequency:    1.0660565761
  - # 8
    frequency:    1.0660565761
  - # 9
    frequency:    2.4402648228
  - # 10
    frequency:    6.0477454923
  - # 11
    frequency:    6.0477454923
  - # 12
    frequency:    7.0842972191
  - # 13
    frequency:   20.6344259636
  - # 14
    frequency:   20.6344259636
  - # 15
    frequency:   21.1332118532

- q-position: [    0.0950000,    0.0000000,    0.0000000 ]
  distance:    0.0252347
  band:
  - # 1
    frequency:   -4.8235172595
  - # 2
    frequency:   -4.8235172595
  - # 3
    frequency:   -4.7196762877
  - # 4
    frequency:   -4.4630800249
  - # 5
    frequency:   -4.4630800249
  - # 6
    frequency:   -3.2148474936
  - # 7
    frequency:    1.1298938847
  - # 8
    frequency:    1.1298938847
  - # 9
    frequency:    2.5567537102
  - # 10
    frequency:    6.0425165069
  - # 11
    frequency:    6.0425165069
  - # 12
    frequency:    7.1943051772
  - # 13
    frequency:   20.6334585801
  - # 14
    frequency:   20.6334585801
  - # 15
    frequency:   21.1881622741

- q-position: [    0.1000000,    0.0000000,    0.0000000 ]
  distance:    0.0265628
  band:
  - # 1
    frequency:   -4.8214463912
  - # 2
    frequency:   -4.8214463912
  - # 3
    frequency:   -4.7004851045
  - # 4
    frequency:   -4.4257007494
  - # 5
    frequency:   -4.4257007494
  - # 6
    frequency:   -3.0271974886
  - # 7
    frequency:    1.1944608675
  - # 8
    frequency:    1.1944608675
  - # 9
    frequency:    2.6708162932
  - # 10
    frequency:    6.0370279951
  - # 11
    frequency:    6.0370279951
  - # 12
    frequency:    7.3093482454
  - # 13
    frequency:   20.6324399862
  - # 14
    frequency:   20.6324399862
  - # 15
    frequency:   21.2458342233

- q-position: [    0.1050000,    0.0000000,    0.0000000 ]
  distance:    0.0278910
  band:
  - # 1
    frequency:   -4.8195537919
  - # 2
    frequency:   -4.8195537919
  - # 3
    frequency:   -4.6803616956
  - # 4
    frequency:   -4.3864066829
  - # 5
    frequency:   -4.3864066829
  - # 6
    frequency:   -2.8221050492
  - # 7
    frequency:    1.2597888631
  - # 8
    frequency:    1.2597888631
  - # 9
    frequency:    2.7824807986
  - # 10
    frequency:    6.0312841011
  - # 11
    frequency:    6.0312841011
  - # 12
    frequency:    7.4292290011
  - # 13
    frequency:   20.6313704191
  - # 14
    frequency:   20.6313704191
  - # 15
    frequency:   21.3061831780

- q-position: [    0.1100000,    0.0000000,    0.0000000 ]
  distance:    0.0292191
  band:
  - # 1
    frequency:   -4.8178201815
  - # 2
    frequency:   -4.8178201815
  - # 3
    frequency:   -4.6593139742
  - # 4
    frequency:   -4.3452660277
  - # 5
    frequency:   -4.3452660277
  - # 6
    frequency:   -2.5961891587
  - # 7
    frequency:    1.3259072007
  - # 8
    frequency:    1.3259072007
  - # 9
    frequency:    2.8917906751
  - # 10
    frequency:    6.0252893222
  - # 11
    frequency:    6.0252893222
  - # 12
    frequency:    7.5537347451
  - # 13
    frequency:   20.6302501445
  - # 14
    frequency:   20.6302501445
  - # 15
    frequency:   21.3691612629

- q-position: [    0.1150000,    0.0000000,    0.0000000 ]
  distance:    0.0305472
  band:
  - # 1
    frequency:   -4.8162310242
  - # 2
    frequency:   -4.8162310242
  - # 3
    frequency:   -4.6373502717
  - # 4
    frequency:   -4.3023459039
  - # 5
    frequency:   -4.3023459039
  - # 6
    frequency:   -2.3442629862
  - # 7
    frequency:    1.3928428288
  - # 8
    frequency:    1.3928428288
  - # 9
    frequency:    2.9988031441
  - # 10
    frequency:    6.0190485348
  - # 11
    frequency:    6.0190485348
  - # 12
    frequency:    7.6826389290
  - # 13
    frequency:   20.6290794593
  - # 14
    frequency:   20.6290794593
  - # 15
    frequency:   21.4347171776

- q-position: [    0.1200000,    0.0000000,    0.0000000 ]
  distance:    0.0318754
  band:
  - # 1
    frequency:   -4.8147756601
  - # 2
    frequency:   -4.8147756601
  - # 3
    frequency:   -4.6144793432
  - # 4
    frequency:   -4.2577133005
  - # 5
    frequency:   -4.2577133005
  - # 6
    frequency:   -2.0577248009
  - # 7
    frequency:    1.4606198968
  - # 8
    frequency:    1.4606198968
  - # 9
    frequency:    3.1035876554
  - # 10
    frequency:    6.0125670243
  - # 11
    frequency:    6.0125670243
  - # 12
    frequency:    7.8157028290
  - # 13
    frequency:   20.6278586933
  - # 14
    frequency:   20.6278586933
  - # 15
    frequency:   21.5027961390

- q-position: [    0.1250000,    0.0000000,    0.0000000 ]
  distance:    0.0332035
  band:
  - # 1
    frequency:   -4.8134465527
  - # 2
    frequency:   -4.8134465527
  - # 3
    frequency:   -4.5907103733
  - # 4
    frequency:   -4.2114358727
  - # 5
    frequency:   -4.2114358727
  - # 6
    frequency:   -1.7204559972
  - # 7
    frequency:    1.5292592874
  - # 8
    frequency:    1.5292592874
  - # 9
    frequency:    3.2062243212
  - # 10
    frequency:    6.0058505172
  - # 11
    frequency:    6.0058505172
  - # 12
    frequency:    7.9526774024
  - # 13
    frequency:   20.6265882122
  - # 14
    frequency:   20.6265882122
  - # 15
    frequency:   21.5733398387

- q-position: [    0.1300000,    0.0000000,    0.0000000 ]
  distance:    0.0345317
  band:
  - # 1
    frequency:   -4.8122386562
  - # 2
    frequency:   -4.8122386562
  - # 3
    frequency:   -4.5660529822
  - # 4
    frequency:   -4.1635825712
  - # 5
    frequency:   -4.1635825712
  - # 6
    frequency:   -1.2947930284
  - # 7
    frequency:    1.5987781019
  - # 8
    frequency:    1.5987781019
  - # 9
    frequency:    3.3068024017
  - # 10
    frequency:    5.9989052174
  - # 11
    frequency:    5.9989052174
  - # 12
    frequency:    8.0933052628
  - # 13
    frequency:   20.6252684193
  - # 14
    frequency:   20.6252684193
  - # 15
    frequency:   21.6462864175

- q-position: [    0.1350000,    0.0000000,    0.0000000 ]
  distance:    0.0358598
  band:
  - # 1
    frequency:   -4.8111488926
  - # 2
    frequency:   -4.8111488926
  - # 3
    frequency:   -4.5405172331
  - # 4
    frequency:   -4.1142241027
  - # 5
    frequency:   -4.1142241027
  - # 6
    frequency:   -0.6224221886
  - # 7
    frequency:    1.6691890999
  - # 8
    frequency:    1.6691890999
  - # 9
    frequency:    3.4054189009
  - # 10
    frequency:    5.9917378455
  - # 11
    frequency:    5.9917378455
  - # 12
    frequency:    8.2373227099
  - # 13
    frequency:   20.6238997585
  - # 14
    frequency:   20.6238997585
  - # 15
    frequency:   21.7215704580

- q-position: [    0.1400000,    0.0000000,    0.0000000 ]
  distance:    0.0371879
  band:
  - # 1
    frequency:   -4.8101757207
  - # 2
    frequency:   -4.8101757207
  - # 3
    frequency:   -4.5141136390
  - # 4
    frequency:   -4.0634332240
  - # 5
    frequency:   -4.0634332240
  - # 6
    frequency:    0.9506592765
  - # 7
    frequency:    1.7405001002
  - # 8
    frequency:    1.7405001002
  - # 9
    frequency:    3.5021773274
  - # 10
    frequency:    5.9843556838
  - # 11
    frequency:    5.9843556838
  - # 12
    frequency:    8.3844617541
  - # 13
    frequency:   20.6224827166
  - # 14
    frequency:   20.6224827166
  - # 15
    frequency:   21.7991229948

- q-position: [    0.1450000,    0.0000000,    0.0000000 ]
  distance:    0.0385161
  band:
  - # 1
    frequency:   -4.8093187835
  - # 2
    frequency:   -4.8093187835
  - # 3
    frequency:   -4.4868531711
  - # 4
    frequency:   -4.0112848751
  - # 5
    frequency:   -4.0112848751
  - # 6
    frequency:    1.4810769949
  - # 7
    frequency:    1.8127133499
  - # 8
    frequency:    1.8127133499
  - # 9
    frequency:    3.5971866505
  - # 10
    frequency:    5.9767666251
  - # 11
    frequency:    5.9767666251
  - # 12
    frequency:    8.5344520855
  - # 13
    frequency:   20.6210178255
  - # 14
    frequency:   20.6210178255
  - # 15
    frequency:   21.8788715443

- q-position: [    0.1500000,    0.0000000,    0.0000000 ]
  distance:    0.0398442
  band:
  - # 1
    frequency:   -4.8085786170
  - # 2
    frequency:   -4.8085786170
  - # 3
    frequency:   -4.4587472676
  - # 4
    frequency:   -3.9578561518
  - # 5
    frequency:   -3.9578561518
  - # 6
    frequency:    1.8651542363
  - # 7
    frequency:    1.8858248742
  - # 8
    frequency:    1.8858248742
  - # 9
    frequency:    3.6905604674
  - # 10
    frequency:    5.9689792272
  - # 11
    frequency:    5.9689792272
  - # 12
    frequency:    8.6870229399
  - # 13
    frequency:   20.6195056650
  - # 14
    frequency:   20.6195056650
  - # 15
    frequency:   21.9607401530

- q-position: [    0.1550000,    0.0000000,    0.0000000 ]
  distance:    0.0411724
  band:
  - # 1
    frequency:   -4.8079564111
  - # 2
    frequency:   -4.8079564111
  - # 3
    frequency:   -4.4298078426
  - # 4
    frequency:   -3.9032261208
  - # 5
    frequency:   -3.9032261208
  - # 6
    frequency:    1.9598238217
  - # 7
    frequency:    1.9598238217
  - # 8
    frequency:    2.1808712401
  - # 9
    frequency:    3.7824163680
  - # 10
    frequency:    5.9610027743
  - # 11
    frequency:    5.9610027743
  - # 12
    frequency:    8.8419048295
  - # 13
    frequency:   20.6179468653
  - # 14
    frequency:   20.6179468653
  - # 15
    frequency:   22.0446494656

- q-position: [    0.1600000,    0.0000000,    0.0000000 ]
  distance:    0.0425005
  band:
  - # 1
    frequency:   -4.8074538104
  - # 2
    frequency:   -4.8074538104
  - # 3
    frequency:   -4.4000472965
  - # 4
    frequency:   -3.8474754791
  - # 5
    frequency:   -3.8474754791
  - # 6
    frequency:    2.0346918238
  - # 7
    frequency:    2.0346918238
  - # 8
    frequency:    2.4541203090
  - # 9
    frequency:    3.8728754546
  - # 10
    frequency:    5.9528473439
  - # 11
    frequency:    5.9528473439
  - # 12
    frequency:    8.9988311110
  - # 13
    frequency:   20.6163421089
  - # 14
    frequency:   20.6163421089
  - # 15
    frequency:   22.1305168109

- q-position: [    0.1650000,    0.0000000,    0.0000000 ]
  distance:    0.0438286
  band:
  - # 1
    frequency:   -4.8070727485
  - # 2
    frequency:   -4.8070727485
  - # 3
    frequency:   -4.3694785270
  - # 4
    frequency:   -3.7906860613
  - # 5
    frequency:   -3.7906860613
  - # 6
    frequency:    2.1104023892
  - # 7
    frequency:    2.1104023892
  - # 8
    frequency:    2.6972846990
  - # 9
    frequency:    3.9620619276
  - # 10
    frequency:    5.9445238829
  - # 11
    frequency:    5.9445238829
  - # 12
    frequency:    9.1575393741
  - # 13
    frequency:   20.6146921337
  - # 14
    frequency:   20.6146921337
  - # 15
    frequency:   22.2182563066

- q-position: [    0.1700000,    0.0000000,    0.0000000 ]
  distance:    0.0451568
  band:
  - # 1
    frequency:   -4.8068153097
  - # 2
    frequency:   -4.8068153097
  - # 3
    frequency:   -4.3381149405
  - # 4
    frequency:   -3.7329402020
  - # 5
    frequency:   -3.7329402020
  - # 6
    frequency:    2.1869203583
  - # 7
    frequency:    2.1869203583
  - # 8
    frequency:    2.9174019963
  - # 9
    frequency:    4.0501025918
  - # 10
    frequency:    5.9360442912
  - # 11
    frequency:    5.9360442912
  - # 12
    frequency:    9.3177726412
  - # 13
    frequency:   20.6129977351
  - # 14
    frequency:   20.6129977351
  - # 15
    frequency:   22.3077789809

- q-position: [    0.1750000,    0.0000000,    0.0000000 ]
  distance:    0.0464849
  band:
  - # 1
    frequency:   -4.8066836115
  - # 2
    frequency:   -4.8066836115
  - # 3
    frequency:   -4.3059704652
  - # 4
    frequency:   -3.6743199637
  - # 5
    frequency:   -3.6743199637
  - # 6
    frequency:    2.2642014410
  - # 7
    frequency:    2.2642014410
  - # 8
    frequency:    3.1189083497
  - # 9
    frequency:    4.1371260638
  - # 10
    frequency:    5.9274215156
  - # 11
    frequency:    5.9274215156
  - # 12
    frequency:    9.4792803766
  - # 13
    frequency:   20.6112597679
  - # 14
    frequency:   20.6112597679
  - # 15
    frequency:   22.3989929113

- q-position: [    0.1800000,    0.0000000,    0.0000000 ]
  distance:    0.0478131
  band:
  - # 1
    frequency:   -4.8066797073
  - # 2
    frequency:   -4.8066797073
  - # 3
    frequency:   -4.2730595645
  - # 4
    frequency:   -3.6149062489
  - # 5
    frequency:   -3.6149062489
  - # 6
    frequency:    2.3421918629
  - # 7
    frequency:    2.3421918629
  - # 8
    frequency:    3.3048023035
  - # 9
    frequency:    4.2232613651
  - # 10
    frequency:    5.9186696547
  - # 11
    frequency:    5.9186696547
  - # 12
    frequency:    9.6418193089
  - # 13
    frequency:   20.6094791494
  - # 14
    frequency:   20.6094791494
  - # 15
    frequency:   22.4918033780

- q-position: [    0.1850000,    0.0000000,    0.0000000 ]
  distance:    0.0491412
  band:
  - # 1
    frequency:   -4.8068055026
  - # 2
    frequency:   -4.8068055026
  - # 3
    frequency:   -4.2393972521
  - # 4
    frequency:   -3.5547778155
  - # 5
    frequency:   -3.5547778155
  - # 6
    frequency:    2.4208281423
  - # 7
    frequency:    2.4208281423
  - # 8
    frequency:    3.4772167667
  - # 9
    frequency:    4.3086354910
  - # 10
    frequency:    5.9098040759
  - # 11
    frequency:    5.9098040759
  - # 12
    frequency:    9.8051540747
  - # 13
    frequency:   20.6076568607
  - # 14
    frequency:   20.6076568607
  - # 15
    frequency:   22.5861130316

- q-position: [    0.1900000,    0.0000000,    0.0000000 ]
  distance:    0.0504694
  band:
  - # 1
    frequency:   -4.8070626858
  - # 2
    frequency:   -4.8070626858
  - # 3
    frequency:   -4.2049991074
  - # 4
    frequency:   -3.4940102277
  - # 5
    frequency:   -3.4940102277
  - # 6
    frequency:    2.5000370152
  - # 7
    frequency:    2.5000370152
  - # 8
    frequency:    3.6377316871
  - # 9
    frequency:    4.3933694720
  - # 10
    frequency:    5.9008415460
  - # 11
    frequency:    5.9008415460
  - # 12
    frequency:    9.9690576967
  - # 13
    frequency:   20.6057939495
  - # 14
    frequency:   20.6057939495
  - # 15
    frequency:   22.6818220730

- q-position: [    0.1950000,    0.0000000,    0.0000000 ]
  distance:    0.0517975
  band:
  - # 1
    frequency:   -4.8074526697
  - # 2
    frequency:   -4.8074526697
  - # 3
    frequency:   -4.1698812932
  - # 4
    frequency:   -3.4326747709
  - # 5
    frequency:   -3.4326747709
  - # 6
    frequency:    2.5797355197
  - # 7
    frequency:    2.5797355197
  - # 8
    frequency:    3.7875603487
  - # 9
    frequency:    4.4775724653
  - # 10
    frequency:    5.8918003771
  - # 11
    frequency:    5.8918003771
  - # 12
    frequency:   10.1333119101
  - # 13
    frequency:   20.6038915315
  - # 14
    frequency:   20.6038915315
  - # 15
    frequency:   22.7788284448

- q-position: [    0.2000000,    0.0000000,    0.0000000 ]
  distance:    0.0531256
  band:
  - # 1
    frequency:   -4.8079765423
  - # 2
    frequency:   -4.8079765423
  - # 3
    frequency:   -4.1340605737
  - # 4
    frequency:   -3.3708373696
  - # 5
    frequency:   -3.3708373696
  - # 6
    frequency:    2.6598312451
  - # 7
    frequency:    2.6598312451
  - # 8
    frequency:    3.9276692026
  - # 9
    frequency:    4.5613336246
  - # 10
    frequency:    5.8827005902
  - # 11
    frequency:    5.8827005902
  - # 12
    frequency:   10.2977073539
  - # 13
    frequency:   20.6019507927
  - # 14
    frequency:   20.6019507927
  - # 15
    frequency:   22.8770280310

- q-position: [    0.2050000,    0.0000000,    0.0000000 ]
  distance:    0.0544538
  band:
  - # 1
    frequency:   -4.8086350276
  - # 2
    frequency:   -4.8086350276
  - # 3
    frequency:   -4.0975543350
  - # 4
    frequency:   -3.3085575444
  - # 5
    frequency:   -3.3085575444
  - # 6
    frequency:    2.7402227383
  - # 7
    frequency:    2.7402227383
  - # 8
    frequency:    4.0588604222
  - # 9
    frequency:    4.6447120097
  - # 10
    frequency:    5.8735640973
  - # 11
    frequency:    5.8735640973
  - # 12
    frequency:   10.4620436444
  - # 13
    frequency:   20.5999729909
  - # 14
    frequency:   20.5999729909
  - # 15
    frequency:   22.9763148653
