natom:   40
displacements:
- atom:    1
  direction:
    [   1.0000000000000000,  0.0000000000000000,  0.0000000000000000 ]
  displacement:
    [   0.0100000000000000,  0.0000000000000000,  0.0000000000000000 ]
- atom:    9
  direction:
    [   1.0000000000000000,  0.0000000000000000,  0.0000000000000000 ]
  displacement:
    [   0.0100000000000000,  0.0000000000000000,  0.0000000000000000 ]
- atom:   17
  direction:
    [   1.0000000000000000,  1.0000000000000000,  0.0000000000000000 ]
  displacement:
    [   0.0070710678118655,  0.0070710678118655,  0.0000000000000000 ]
lattice:
- [     7.529321858000000,     0.000000000000000,     0.000000000000000 ] # a
- [     0.000000000000000,     7.529321858000000,     0.000000000000000 ] # b
- [     0.000000000000000,     0.000000000000000,     7.529321858000000 ] # c
points:
- symbol: Ca # 1
  coordinates: [  0.000000000000000,  0.000000000000000,  0.000000000000000 ]
  mass: 40.078000
- symbol: Ca # 2
  coordinates: [  0.500000000000000,  0.000000000000000,  0.000000000000000 ]
  mass: 40.078000
- symbol: Ca # 3
  coordinates: [  0.000000000000000,  0.500000000000000,  0.000000000000000 ]
  mass: 40.078000
- symbol: Ca # 4
  coordinates: [  0.500000000000000,  0.500000000000000,  0.000000000000000 ]
  mass: 40.078000
- symbol: Ca # 5
  coordinates: [  0.000000000000000,  0.000000000000000,  0.500000000000000 ]
  mass: 40.078000
- symbol: Ca # 6
  coordinates: [  0.500000000000000,  0.000000000000000,  0.500000000000000 ]
  mass: 40.078000
- symbol: Ca # 7
  coordinates: [  0.000000000000000,  0.500000000000000,  0.500000000000000 ]
  mass: 40.078000
- symbol: Ca # 8
  coordinates: [  0.500000000000000,  0.500000000000000,  0.500000000000000 ]
  mass: 40.078000
- symbol: Ti # 9
  coordinates: [  0.250000000000000,  0.250000000000000,  0.250000000000000 ]
  mass: 47.867000
- symbol: Ti # 10
  coordinates: [  0.750000000000000,  0.250000000000000,  0.250000000000000 ]
  mass: 47.867000
- symbol: Ti # 11
  coordinates: [  0.250000000000000,  0.750000000000000,  0.250000000000000 ]
  mass: 47.867000
- symbol: Ti # 12
  coordinates: [  0.750000000000000,  0.750000000000000,  0.250000000000000 ]
  mass: 47.867000
- symbol: Ti # 13
  coordinates: [  0.250000000000000,  0.250000000000000,  0.750000000000000 ]
  mass: 47.867000
- symbol: Ti # 14
  coordinates: [  0.750000000000000,  0.250000000000000,  0.750000000000000 ]
  mass: 47.867000
- symbol: Ti # 15
  coordinates: [  0.250000000000000,  0.750000000000000,  0.750000000000000 ]
  mass: 47.867000
- symbol: Ti # 16
  coordinates: [  0.750000000000000,  0.750000000000000,  0.750000000000000 ]
  mass: 47.867000
- symbol: O  # 17
  coordinates: [  0.000000000000000,  0.250000000000000,  0.250000000000000 ]
  mass: 15.999400
- symbol: O  # 18
  coordinates: [  0.500000000000000,  0.250000000000000,  0.250000000000000 ]
  mass: 15.999400
- symbol: O  # 19
  coordinates: [  0.000000000000000,  0.750000000000000,  0.250000000000000 ]
  mass: 15.999400
- symbol: O  # 20
  coordinates: [  0.500000000000000,  0.750000000000000,  0.250000000000000 ]
  mass: 15.999400
- symbol: O  # 21
  coordinates: [  0.000000000000000,  0.250000000000000,  0.750000000000000 ]
  mass: 15.999400
- symbol: O  # 22
  coordinates: [  0.500000000000000,  0.250000000000000,  0.750000000000000 ]
  mass: 15.999400
- symbol: O  # 23
  coordinates: [  0.000000000000000,  0.750000000000000,  0.750000000000000 ]
  mass: 15.999400
- symbol: O  # 24
  coordinates: [  0.500000000000000,  0.750000000000000,  0.750000000000000 ]
  mass: 15.999400
- symbol: O  # 25
  coordinates: [  0.250000000000000,  0.000000000000000,  0.250000000000000 ]
  mass: 15.999400
- symbol: O  # 26
  coordinates: [  0.750000000000000,  0.000000000000000,  0.250000000000000 ]
  mass: 15.999400
- symbol: O  # 27
  coordinates: [  0.250000000000000,  0.500000000000000,  0.250000000000000 ]
  mass: 15.999400
- symbol: O  # 28
  coordinates: [  0.750000000000000,  0.500000000000000,  0.250000000000000 ]
  mass: 15.999400
- symbol: O  # 29
  coordinates: [  0.250000000000000,  0.000000000000000,  0.750000000000000 ]
  mass: 15.999400
- symbol: O  # 30
  coordinates: [  0.750000000000000,  0.000000000000000,  0.750000000000000 ]
  mass: 15.999400
- symbol: O  # 31
  coordinates: [  0.250000000000000,  0.500000000000000,  0.750000000000000 ]
  mass: 15.999400
- symbol: O  # 32
  coordinates: [  0.750000000000000,  0.500000000000000,  0.750000000000000 ]
  mass: 15.999400
- symbol: O  # 33
  coordinates: [  0.250000000000000,  0.250000000000000,  0.000000000000000 ]
  mass: 15.999400
- symbol: O  # 34
  coordinates: [  0.750000000000000,  0.250000000000000,  0.000000000000000 ]
  mass: 15.999400
- symbol: O  # 35
  coordinates: [  0.250000000000000,  0.750000000000000,  0.000000000000000 ]
  mass: 15.999400
- symbol: O  # 36
  coordinates: [  0.750000000000000,  0.750000000000000,  0.000000000000000 ]
  mass: 15.999400
- symbol: O  # 37
  coordinates: [  0.250000000000000,  0.250000000000000,  0.500000000000000 ]
  mass: 15.999400
- symbol: O  # 38
  coordinates: [  0.750000000000000,  0.250000000000000,  0.500000000000000 ]
  mass: 15.999400
- symbol: O  # 39
  coordinates: [  0.250000000000000,  0.750000000000000,  0.500000000000000 ]
  mass: 15.999400
- symbol: O  # 40
  coordinates: [  0.750000000000000,  0.750000000000000,  0.500000000000000 ]
  mass: 15.999400