40   
3    

1    
  0.0100000000000000   0.0000000000000000   0.0000000000000000
  -0.0347118938   -0.0000000000   -0.0000000000
   0.0190719045   -0.0000000000   -0.0000000000
  -0.0064557719   -0.0000000000   -0.0000000000
   0.0066013570   -0.0000000000   -0.0000000000
  -0.0064557719   -0.0000000000   -0.0000000000
   0.0066013570   -0.0000000000   -0.0000000000
  -0.0033196779   -0.0000000000   -0.0000000000
   0.0027239553   -0.0000000000   -0.0000000000
   0.0035410997    0.0127782936    0.0127782936
   0.0037055733   -0.0126559759   -0.0126559759
   0.0035410997   -0.0127782936    0.0127782936
   0.0037055733    0.0126559759   -0.0126559759
   0.0035410997    0.0127782936   -0.0127782936
   0.0037055733   -0.0126559759    0.0126559759
   0.0035410997   -0.0127782936   -0.0127782936
   0.0037055733    0.0126559759    0.0126559759
   0.0102647573    0.0000091586    0.0000091586
  -0.0075554903    0.0000067192    0.0000067192
   0.0102647573   -0.0000091586    0.0000091586
  -0.0075554903   -0.0000067192    0.0000067192
   0.0102647573    0.0000091586   -0.0000091586
  -0.0075554903    0.0000067192   -0.0000067192
   0.0102647573   -0.0000091586   -0.0000091586
  -0.0075554903   -0.0000067192   -0.0000067192
  -0.0032622699   -0.0000000000   -0.0071703880
  -0.0033686711   -0.0000000000    0.0072317168
   0.0002967970   -0.0000000000   -0.0018477108
   0.0002762800   -0.0000000000    0.0018928034
  -0.0032622699   -0.0000000000    0.0071703880
  -0.0033686711   -0.0000000000   -0.0072317168
   0.0002967970   -0.0000000000    0.0018477108
   0.0002762800   -0.0000000000   -0.0018928034
  -0.0032622699   -0.0071703880   -0.0000000000
  -0.0033686711    0.0072317168   -0.0000000000
  -0.0032622699    0.0071703880   -0.0000000000
  -0.0033686711   -0.0072317168   -0.0000000000
   0.0002967970   -0.0018477108   -0.0000000000
   0.0002762800    0.0018928034   -0.0000000000
   0.0002967970    0.0018477108   -0.0000000000
   0.0002762800   -0.0018928034   -0.0000000000

9    
  0.0100000000000000   0.0000000000000000   0.0000000000000000
   0.0036487441    0.0125522118    0.0125522118
   0.0035468565   -0.0127168744   -0.0127168744
   0.0036487441   -0.0125522118    0.0125522118
   0.0035468565    0.0127168744   -0.0127168744
   0.0036487441    0.0125522118   -0.0125522118
   0.0035468565   -0.0127168744    0.0127168744
   0.0036487441   -0.0125522118   -0.0125522118
   0.0035468565    0.0127168744    0.0127168744
  -0.2443519042   -0.0000000000   -0.0000000000
   0.1691451623   -0.0000000000   -0.0000000000
  -0.0028089279   -0.0000000000   -0.0000000000
   0.0037889637   -0.0000000000   -0.0000000000
  -0.0028089279   -0.0000000000   -0.0000000000
   0.0037889637   -0.0000000000   -0.0000000000
  -0.0027912122   -0.0000000000   -0.0000000000
   0.0027765123   -0.0000000000   -0.0000000000
   0.0408888130   -0.0000000000   -0.0000000000
   0.0475758332   -0.0000000000   -0.0000000000
  -0.0013816582   -0.0000000000   -0.0000000000
  -0.0010739997   -0.0000000000   -0.0000000000
  -0.0013816582   -0.0000000000   -0.0000000000
  -0.0010739997   -0.0000000000   -0.0000000000
   0.0003868274   -0.0000000000   -0.0000000000
  -0.0003173972   -0.0000000000   -0.0000000000
   0.0107996036    0.0005142772   -0.0000000000
  -0.0202939445   -0.0001494948   -0.0000000000
   0.0107996036   -0.0005142772   -0.0000000000
  -0.0202939445    0.0001494948   -0.0000000000
   0.0011662395   -0.0002399463   -0.0000000000
  -0.0011410724    0.0001736481   -0.0000000000
   0.0011662395    0.0002399463   -0.0000000000
  -0.0011410724   -0.0001736481   -0.0000000000
   0.0107996036   -0.0000000000    0.0005142772
  -0.0202939445   -0.0000000000   -0.0001494948
   0.0011662395   -0.0000000000   -0.0002399463
  -0.0011410724   -0.0000000000    0.0001736481
   0.0107996036   -0.0000000000   -0.0005142772
  -0.0202939445   -0.0000000000    0.0001494948
   0.0011662395   -0.0000000000    0.0002399463
  -0.0011410724   -0.0000000000   -0.0001736481

17   
  0.0070710678118655   0.0070710678118655   0.0000000000000000
   0.0073299628   -0.0024327330   -0.0052145939
  -0.0054630681    0.0002070138   -0.0014011181
   0.0073575779   -0.0022731345    0.0051032259
  -0.0054782514    0.0001837315    0.0013606071
   0.0073299628   -0.0024327330    0.0052145939
  -0.0054630681    0.0002070138    0.0014011181
   0.0073575779   -0.0022731345   -0.0051032259
  -0.0054782514    0.0001837315   -0.0013606071
   0.0330915080    0.0077107721   -0.0000000000
   0.0295332262    0.0082481268   -0.0000000000
  -0.0007463698   -0.0149107670   -0.0000000000
  -0.0007881274   -0.0146400922   -0.0000000000
  -0.0008208300    0.0011489987   -0.0000000000
  -0.0008401350    0.0009518657   -0.0000000000
  -0.0000285470   -0.0010447182   -0.0000000000
   0.0000203402   -0.0009617654   -0.0000000000
  -0.2356380815   -0.0105394051   -0.0000000000
   0.0593863488    0.0032539743   -0.0000000000
  -0.0083588568    0.0031546788   -0.0000000000
   0.0109677090    0.0055913927   -0.0000000000
  -0.0083982012   -0.0011605519   -0.0000000000
   0.0110342597   -0.0000994284   -0.0000000000
  -0.0023467109    0.0019837620   -0.0000000000
   0.0021699053    0.0001796447   -0.0000000000
  -0.0014245255   -0.0086721752   -0.0000000000
   0.0236605033    0.0308084990   -0.0000000000
   0.0238681335    0.0313227118   -0.0000000000
  -0.0013620347   -0.0086441948   -0.0000000000
  -0.0003801460   -0.0018293308   -0.0000000000
   0.0003658728    0.0018774968   -0.0000000000
   0.0004898156    0.0018831838   -0.0000000000
  -0.0004025578   -0.0018322216   -0.0000000000
   0.0111523488   -0.0037829000   -0.0199367566
   0.0112279772   -0.0037295856    0.0198953906
  -0.0000076200    0.0015784043   -0.0017250228
   0.0000342029    0.0015599349    0.0018883406
   0.0111523488   -0.0037829000    0.0199367566
   0.0112279772   -0.0037295856   -0.0198953906
  -0.0000076200    0.0015784043    0.0017250228
   0.0000342029    0.0015599349   -0.0018883406
