mesh: [    41,    41,    41 ]
nqpoint: 1771   
reciprocal_lattice:
- [   0.26562817,   0.00000000,   0.00000000 ] # a*
- [   0.00000000,   0.26562817,   0.00000000 ] # b*
- [   0.00000000,   0.00000000,   0.26562817 ] # c*
natom:   5      
lattice:
- [     3.764660929000000,     0.000000000000000,     0.000000000000000 ] # a
- [     0.000000000000000,     3.764660929000000,     0.000000000000000 ] # b
- [     0.000000000000000,     0.000000000000000,     3.764660929000000 ] # c
points:
- symbol: Ca # 1
  coordinates: [  0.000000000000000,  0.000000000000000,  0.000000000000000 ]
  mass: 40.078000
- symbol: Ti # 2
  coordinates: [  0.500000000000000,  0.500000000000000,  0.500000000000000 ]
  mass: 47.867000
- symbol: O  # 3
  coordinates: [  0.000000000000000,  0.500000000000000,  0.500000000000000 ]
  mass: 15.999400
- symbol: O  # 4
  coordinates: [  0.500000000000000,  0.000000000000000,  0.500000000000000 ]
  mass: 15.999400
- symbol: O  # 5
  coordinates: [  0.500000000000000,  0.500000000000000,  0.000000000000000 ]
  mass: 15.999400
phonon:
- q-position: [    0.0000000,    0.0000000,    0.0000000 ]
  weight: 1    
  band:
  - # 1
    frequency:    -4.8995874959
  - # 2
    frequency:    -4.8995874959
  - # 3
    frequency:    -4.8995874959
  - # 4
    frequency:    -4.7639086065
  - # 5
    frequency:    -4.7639086065
  - # 6
    frequency:    -4.7639086065
  - # 7
    frequency:    -0.0000001880
  - # 8
    frequency:    -0.0000000824
  - # 9
    frequency:     0.0000001194
  - # 10
    frequency:     6.0943904787
  - # 11
    frequency:     6.0943904787
  - # 12
    frequency:     6.0943904787
  - # 13
    frequency:    20.6429314487
  - # 14
    frequency:    20.6429314487
  - # 15
    frequency:    20.6429314487

- q-position: [    0.0243902,    0.0000000,    0.0000000 ]
  weight: 6    
  band:
  - # 1
    frequency:    -4.8876032662
  - # 2
    frequency:    -4.8860277387
  - # 3
    frequency:    -4.8860277387
  - # 4
    frequency:    -4.7520153606
  - # 5
    frequency:    -4.7520153606
  - # 6
    frequency:    -4.6680305274
  - # 7
    frequency:     0.2791921077
  - # 8
    frequency:     0.2791921077
  - # 9
    frequency:     0.7069224618
  - # 10
    frequency:     6.0909152206
  - # 11
    frequency:     6.0909152206
  - # 12
    frequency:     6.1681031179
  - # 13
    frequency:    20.6423051221
  - # 14
    frequency:    20.6423051221
  - # 15
    frequency:    20.6794530645

- q-position: [    0.0487805,    0.0000000,    0.0000000 ]
  weight: 6    
  band:
  - # 1
    frequency:    -4.8574940530
  - # 2
    frequency:    -4.8574940530
  - # 3
    frequency:    -4.8517562887
  - # 4
    frequency:    -4.7046811595
  - # 5
    frequency:    -4.7046811595
  - # 6
    frequency:    -4.3768028541
  - # 7
    frequency:     0.5630273793
  - # 8
    frequency:     0.5630273793
  - # 9
    frequency:     1.3902403217
  - # 10
    frequency:     6.0805348581
  - # 11
    frequency:     6.0805348581
  - # 12
    frequency:     6.3887331221
  - # 13
    frequency:    20.6404274398
  - # 14
    frequency:    20.6404274398
  - # 15
    frequency:    20.7885571755

- q-position: [    0.0731707,    0.0000000,    0.0000000 ]
  weight: 6    
  band:
  - # 1
    frequency:    -4.8354101394
  - # 2
    frequency:    -4.8354101394
  - # 3
    frequency:    -4.7923648706
  - # 4
    frequency:    -4.6020228339
  - # 5
    frequency:    -4.6020228339
  - # 6
    frequency:    -3.8757580534
  - # 7
    frequency:     0.8561064079
  - # 8
    frequency:     0.8561064079
  - # 9
    frequency:     2.0303371132
  - # 10
    frequency:     6.0633908575
  - # 11
    frequency:     6.0633908575
  - # 12
    frequency:     6.7532660395
  - # 13
    frequency:    20.6373031850
  - # 14
    frequency:    20.6373031850
  - # 15
    frequency:    20.9687707062

- q-position: [    0.0975610,    0.0000000,    0.0000000 ]
  weight: 6    
  band:
  - # 1
    frequency:    -4.8224328979
  - # 2
    frequency:    -4.8224328979
  - # 3
    frequency:    -4.7099635905
  - # 4
    frequency:    -4.4441780441
  - # 5
    frequency:    -4.4441780441
  - # 6
    frequency:    -3.1207499821
  - # 7
    frequency:     1.1628716069
  - # 8
    frequency:     1.1628716069
  - # 9
    frequency:     2.6154777114
  - # 10
    frequency:     6.0397374864
  - # 11
    frequency:     6.0397374864
  - # 12
    frequency:     7.2526127204
  - # 13
    frequency:    20.6329432445
  - # 14
    frequency:    20.6329432445
  - # 15
    frequency:    21.2173643025

- q-position: [    0.1219512,    0.0000000,    0.0000000 ]
  weight: 6    
  band:
  - # 1
    frequency:    -4.8142422899
  - # 2
    frequency:    -4.8142422899
  - # 3
    frequency:    -4.6053099730
  - # 4
    frequency:    -4.2398457452
  - # 5
    frequency:    -4.2398457452
  - # 6
    frequency:    -1.9334657162
  - # 7
    frequency:     1.4873023715
  - # 8
    frequency:     1.4873023715
  - # 9
    frequency:     3.1438917982
  - # 10
    frequency:     6.0099735765
  - # 11
    frequency:     6.0099735765
  - # 12
    frequency:     7.8687050690
  - # 13
    frequency:    20.6273687894
  - # 14
    frequency:    20.6273687894
  - # 15
    frequency:    21.5300354727

- q-position: [    0.1463415,    0.0000000,    0.0000000 ]
  weight: 6    
  band:
  - # 1
    frequency:    -4.8091087011
  - # 2
    frequency:    -4.8091087011
  - # 3
    frequency:    -4.4793950616
  - # 4
    frequency:    -3.9970727680
  - # 5
    frequency:    -3.9970727680
  - # 6
    frequency:     1.5934208589
  - # 7
    frequency:     1.8322407874
  - # 8
    frequency:     1.8322407874
  - # 9
    frequency:     3.6223938846
  - # 10
    frequency:     5.9746964197
  - # 11
    frequency:     5.9746964197
  - # 12
    frequency:     8.5751436551
  - # 13
    frequency:    20.6206167385
  - # 14
    frequency:    20.6206167385
  - # 15
    frequency:    21.9006314292

- q-position: [    0.1707317,    0.0000000,    0.0000000 ]
  weight: 6    
  band:
  - # 1
    frequency:    -4.8067881325
  - # 2
    frequency:    -4.8067881325
  - # 3
    frequency:    -4.3334593082
  - # 4
    frequency:    -3.7244142984
  - # 5
    frequency:    -3.7244142984
  - # 6
    frequency:     2.1981832960
  - # 7
    frequency:     2.1981832960
  - # 8
    frequency:     2.9479693127
  - # 9
    frequency:     4.0628981870
  - # 10
    frequency:     5.9347910420
  - # 11
    frequency:     5.9347910420
  - # 12
    frequency:     9.3413342029
  - # 13
    frequency:    20.6127460986
  - # 14
    frequency:    20.6127460986
  - # 15
    frequency:    22.3210239509

- q-position: [    0.1951220,    0.0000000,    0.0000000 ]
  weight: 6    
  band:
  - # 1
    frequency:    -4.8074638504
  - # 2
    frequency:    -4.8074638504
  - # 3
    frequency:    -4.1690159107
  - # 4
    frequency:    -3.4311722581
  - # 5
    frequency:    -3.4311722581
  - # 6
    frequency:     2.5816847424
  - # 7
    frequency:     2.5816847424
  - # 8
    frequency:     3.7910897485
  - # 9
    frequency:     4.4796203680
  - # 10
    frequency:     5.8915790434
  - # 11
    frequency:     5.8915790434
  - # 12
    frequency:    10.1373207069
  - # 13
    frequency:    20.6038446474
  - # 14
    frequency:    20.6038446474
  - # 15
    frequency:    22.7812097871

- q-position: [    0.2195122,    0.0000000,    0.0000000 ]
  weight: 6    
  band:
  - # 1
    frequency:    -4.8113097481
  - # 2
    frequency:    -4.8113097481
  - # 3
    frequency:    -3.9878847073
  - # 4
    frequency:    -3.1257343479
  - # 5
    frequency:    -3.1257343479
  - # 6
    frequency:     2.9741778585
  - # 7
    frequency:     2.9741778585
  - # 8
    frequency:     4.3953450580
  - # 9
    frequency:     4.8844835850
  - # 10
    frequency:     5.8470706894
  - # 11
    frequency:     5.8470706894
  - # 12
    frequency:    10.9369518024
  - # 13
    frequency:    20.5940352929
  - # 14
    frequency:    20.5940352929
  - # 15
    frequency:    23.2696443552

- q-position: [    0.2439024,    0.0000000,    0.0000000 ]
  weight: 6    
  band:
  - # 1
    frequency:    -4.8183101303
  - # 2
    frequency:    -4.8183101303
  - # 3
    frequency:    -3.7922410957
  - # 4
    frequency:    -2.8129967331
  - # 5
    frequency:    -2.8129967331
  - # 6
    frequency:     3.3622628740
  - # 7
    frequency:     3.3622628740
  - # 8
    frequency:     4.8456008667
  - # 9
    frequency:     5.2727297597
  - # 10
    frequency:     5.8043950377
  - # 11
    frequency:     5.8043950377
  - # 12
    frequency:    11.7189414911
  - # 13
    frequency:    20.5834813347
  - # 14
    frequency:    20.5834813347
  - # 15
    frequency:    23.7737507644

- q-position: [    0.2682927,    0.0000000,    0.0000000 ]
  weight: 6    
  band:
  - # 1
    frequency:    -4.8281986409
  - # 2
    frequency:    -4.8281986409
  - # 3
    frequency:    -3.5846862363
  - # 4
    frequency:    -2.4925180815
  - # 5
    frequency:    -2.4925180815
  - # 6
    frequency:     3.7293916771
  - # 7
    frequency:     3.7293916771
  - # 8
    frequency:     5.2026645268
  - # 9
    frequency:     5.6221682586
  - # 10
    frequency:     5.7685103839
  - # 11
    frequency:     5.7685103839
  - # 12
    frequency:    12.4665571406
  - # 13
    frequency:    20.5723897716
  - # 14
    frequency:    20.5723897716
  - # 15
    frequency:    24.2805076893

- q-position: [    0.2926829,    0.0000000,    0.0000000 ]
  weight: 6    
  band:
  - # 1
    frequency:    -4.8404657634
  - # 2
    frequency:    -4.8404657634
  - # 3
    frequency:    -3.3683469509
  - # 4
    frequency:    -2.1580436024
  - # 5
    frequency:    -2.1580436024
  - # 6
    frequency:     4.0574594277
  - # 7
    frequency:     4.0574594277
  - # 8
    frequency:     5.5038155457
  - # 9
    frequency:     5.7471983889
  - # 10
    frequency:     5.7471983889
  - # 11
    frequency:     5.9186690392
  - # 12
    frequency:    13.1667774106
  - # 13
    frequency:    20.5610117902
  - # 14
    frequency:    20.5610117902
  - # 15
    frequency:    24.7770190154

- q-position: [    0.3170732,    0.0000000,    0.0000000 ]
  weight: 6    
  band:
  - # 1
    frequency:    -4.8544071798
  - # 2
    frequency:    -4.8544071798
  - # 3
    frequency:    -3.1470156244
  - # 4
    frequency:    -1.7967725415
  - # 5
    frequency:    -1.7967725415
  - # 6
    frequency:     4.3276804182
  - # 7
    frequency:     4.3276804182
  - # 8
    frequency:     5.7516054615
  - # 9
    frequency:     5.7516054615
  - # 10
    frequency:     5.7653558654
  - # 11
    frequency:     6.1615528314
  - # 12
    frequency:    13.8094263988
  - # 13
    frequency:    20.5496396508
  - # 14
    frequency:    20.5496396508
  - # 15
    frequency:    25.2509962292

- q-position: [    0.3414634,    0.0000000,    0.0000000 ]
  weight: 6    
  band:
  - # 1
    frequency:    -4.8691922855
  - # 2
    frequency:    -4.8691922855
  - # 3
    frequency:    -2.9253400501
  - # 4
    frequency:    -1.3836122629
  - # 5
    frequency:    -1.3836122629
  - # 6
    frequency:     4.5236240555
  - # 7
    frequency:     4.5236240555
  - # 8
    frequency:     5.7933985678
  - # 9
    frequency:     5.7933985678
  - # 10
    frequency:     5.9936231180
  - # 11
    frequency:     6.3557857255
  - # 12
    frequency:    14.3864766027
  - # 13
    frequency:    20.5385993966
  - # 14
    frequency:    20.5385993966
  - # 15
    frequency:    25.6911223394

- q-position: [    0.3658537,    0.0000000,    0.0000000 ]
  weight: 6    
  band:
  - # 1
    frequency:    -4.8839372048
  - # 2
    frequency:    -4.8839372048
  - # 3
    frequency:    -2.7090650905
  - # 4
    frequency:    -0.8453221692
  - # 5
    frequency:    -0.8453221692
  - # 6
    frequency:     4.6402265649
  - # 7
    frequency:     4.6402265649
  - # 8
    frequency:     5.8753717737
  - # 9
    frequency:     5.8753717737
  - # 10
    frequency:     6.1910571209
  - # 11
    frequency:     6.5074355591
  - # 12
    frequency:    14.8915461229
  - # 13
    frequency:    20.5282391611
  - # 14
    frequency:    20.5282391611
  - # 15
    frequency:    26.0872978664

- q-position: [    0.3902439,    0.0000000,    0.0000000 ]
  weight: 6    
  band:
  - # 1
    frequency:    -4.8977720746
  - # 2
    frequency:    -4.8977720746
  - # 3
    frequency:    -2.5052999037
  - # 4
    frequency:     0.5991896146
  - # 5
    frequency:     0.5991896146
  - # 6
    frequency:     4.6908165592
  - # 7
    frequency:     4.6908165592
  - # 8
    frequency:     5.9839732227
  - # 9
    frequency:     5.9839732227
  - # 10
    frequency:     6.3586029122
  - # 11
    frequency:     6.6220748912
  - # 12
    frequency:    15.3195556647
  - # 13
    frequency:    20.5189133423
  - # 14
    frequency:    20.5189133423
  - # 15
    frequency:    26.4307883525

- q-position: [    0.4146341,    0.0000000,    0.0000000 ]
  weight: 6    
  band:
  - # 1
    frequency:    -4.9098973804
  - # 2
    frequency:    -4.9098973804
  - # 3
    frequency:    -2.3227140330
  - # 4
    frequency:     1.1326104008
  - # 5
    frequency:     1.1326104008
  - # 6
    frequency:     4.6992204902
  - # 7
    frequency:     4.6992204902
  - # 8
    frequency:     6.0968366803
  - # 9
    frequency:     6.0968366803
  - # 10
    frequency:     6.4966537964
  - # 11
    frequency:     6.7043011936
  - # 12
    frequency:    15.6665014511
  - # 13
    frequency:    20.5109634993
  - # 14
    frequency:    20.5109634993
  - # 15
    frequency:    26.7142996976

- q-position: [    0.4390244,    0.0000000,    0.0000000 ]
  weight: 6    
  band:
  - # 1
    frequency:    -4.9196278530
  - # 2
    frequency:    -4.9196278530
  - # 3
    frequency:    -2.1714314468
  - # 4
    frequency:     1.4227573745
  - # 5
    frequency:     1.4227573745
  - # 6
    frequency:     4.6873969303
  - # 7
    frequency:     4.6873969303
  - # 8
    frequency:     6.1947772436
  - # 9
    frequency:     6.1947772436
  - # 10
    frequency:     6.6053638716
  - # 11
    frequency:     6.7577075289
  - # 12
    frequency:    15.9293076055
  - # 13
    frequency:    20.5046974370
  - # 14
    frequency:    20.5046974370
  - # 15
    frequency:    26.9320065740

- q-position: [    0.4634146,    0.0000000,    0.0000000 ]
  weight: 6    
  band:
  - # 1
    frequency:    -4.9264246202
  - # 2
    frequency:    -4.9264246202
  - # 3
    frequency:    -2.0622331838
  - # 4
    frequency:     1.5958829534
  - # 5
    frequency:     1.5958829534
  - # 6
    frequency:     4.6711354552
  - # 7
    frequency:     4.6711354552
  - # 8
    frequency:     6.2655218887
  - # 9
    frequency:     6.2655218887
  - # 10
    frequency:     6.6843521794
  - # 11
    frequency:     6.7853579765
  - # 12
    frequency:    16.1057318308
  - # 13
    frequency:    20.5003684544
  - # 14
    frequency:    20.5003684544
  - # 15
    frequency:    27.0795544242

- q-position: [    0.4878049,    0.0000000,    0.0000000 ]
  weight: 6    
  band:
  - # 1
    frequency:    -4.9299172288
  - # 2
    frequency:    -4.9299172288
  - # 3
    frequency:    -2.0047219598
  - # 4
    frequency:     1.6786782034
  - # 5
    frequency:     1.6786782034
  - # 6
    frequency:     4.6605071399
  - # 7
    frequency:     4.6605071399
  - # 8
    frequency:     6.3023514734
  - # 9
    frequency:     6.3023514734
  - # 10
    frequency:     6.7302500644
  - # 11
    frequency:     6.7923541623
  - # 12
    frequency:    16.1943068987
  - # 13
    frequency:    20.4981570115
  - # 14
    frequency:    20.4981570115
  - # 15
    frequency:    27.1540499455

- q-position: [    0.0243902,    0.0243902,    0.0000000 ]
  weight: 12   
  band:
  - # 1
    frequency:    -4.9069261941
  - # 2
    frequency:    -4.8702835777
  - # 3
    frequency:    -4.8434513538
  - # 4
    frequency:    -4.7421311013
  - # 5
    frequency:    -4.7057086680
  - # 6
    frequency:    -4.6042594590
  - # 7
    frequency:     0.3932803291
  - # 8
    frequency:     0.4855604093
  - # 9
    frequency:     0.9602612572
  - # 10
    frequency:     6.0874452388
  - # 11
    frequency:     6.1378844633
  - # 12
    frequency:     6.1913767494
  - # 13
    frequency:    20.6416775871
  - # 14
    frequency:    20.6554957943
  - # 15
    frequency:    20.7020352255

- q-position: [    0.0487805,    0.0243902,    0.0000000 ]
  weight: 24   
  band:
  - # 1
    frequency:    -4.9015932286
  - # 2
    frequency:    -4.8361447005
  - # 3
    frequency:    -4.7884682279
  - # 4
    frequency:    -4.6998715637
  - # 5
    frequency:    -4.6433592288
  - # 6
    frequency:    -4.3237344584
  - # 7
    frequency:     0.6245330337
  - # 8
    frequency:     0.7149225985
  - # 9
    frequency:     1.5251537975
  - # 10
    frequency:     6.0770806222
  - # 11
    frequency:     6.1432222652
  - # 12
    frequency:     6.3963737778
  - # 13
    frequency:    20.6397962470
  - # 14
    frequency:    20.6598527097
  - # 15
    frequency:    20.8045370096

- q-position: [    0.0731707,    0.0243902,    0.0000000 ]
  weight: 24   
  band:
  - # 1
    frequency:    -4.8738575574
  - # 2
    frequency:    -4.8104828316
  - # 3
    frequency:    -4.7455162741
  - # 4
    frequency:    -4.5998933144
  - # 5
    frequency:    -4.5307213462
  - # 6
    frequency:    -3.8206641879
  - # 7
    frequency:     0.8943410731
  - # 8
    frequency:     0.9636251467
  - # 9
    frequency:     2.1274112949
  - # 10
    frequency:     6.0599625813
  - # 11
    frequency:     6.1286740794
  - # 12
    frequency:     6.7586660763
  - # 13
    frequency:    20.6366657924
  - # 14
    frequency:    20.6577789301
  - # 15
    frequency:    20.9830868077

- q-position: [    0.0975610,    0.0243902,    0.0000000 ]
  weight: 24   
  band:
  - # 1
    frequency:    -4.8354607241
  - # 2
    frequency:    -4.7963931899
  - # 3
    frequency:    -4.7020884496
  - # 4
    frequency:    -4.4418781225
  - # 5
    frequency:    -4.3627529863
  - # 6
    frequency:    -3.0577725098
  - # 7
    frequency:     1.1877411061
  - # 8
    frequency:     1.2410250292
  - # 9
    frequency:     2.6962751065
  - # 10
    frequency:     6.0363449286
  - # 11
    frequency:     6.1071174083
  - # 12
    frequency:     7.2568022116
  - # 13
    frequency:    20.6322969721
  - # 14
    frequency:    20.6535256681
  - # 15
    frequency:    21.2307170636

- q-position: [    0.1219512,    0.0243902,    0.0000000 ]
  weight: 24   
  band:
  - # 1
    frequency:    -4.8042545314
  - # 2
    frequency:    -4.7875585257
  - # 3
    frequency:    -4.6329186781
  - # 4
    frequency:    -4.2365068292
  - # 5
    frequency:    -4.1509622521
  - # 6
    frequency:    -1.8441034276
  - # 7
    frequency:     1.5033072208
  - # 8
    frequency:     1.5467492920
  - # 9
    frequency:     3.2174156140
  - # 10
    frequency:     6.0066257935
  - # 11
    frequency:     6.0799236349
  - # 12
    frequency:     7.8720148429
  - # 13
    frequency:    20.6267107989
  - # 14
    frequency:    20.6477325176
  - # 15
    frequency:    21.5425144457

- q-position: [    0.1463415,    0.0243902,    0.0000000 ]
  weight: 24   
  band:
  - # 1
    frequency:    -4.7869085278
  - # 2
    frequency:    -4.7817542018
  - # 3
    frequency:    -4.5303446576
  - # 4
    frequency:    -3.9923254995
  - # 5
    frequency:    -3.9035898202
  - # 6
    frequency:     1.6402933647
  - # 7
    frequency:     1.8419491287
  - # 8
    frequency:     1.9075701818
  - # 9
    frequency:     3.6940665801
  - # 10
    frequency:     5.9714014468
  - # 11
    frequency:     6.0481415496
  - # 12
    frequency:     8.5777536914
  - # 13
    frequency:    20.6199440434
  - # 14
    frequency:    20.6405929725
  - # 15
    frequency:    21.9121855718

- q-position: [    0.1707317,    0.0243902,    0.0000000 ]
  weight: 24   
  band:
  - # 1
    frequency:    -4.7790661349
  - # 2
    frequency:    -4.7786830571
  - # 3
    frequency:    -4.4001740508
  - # 4
    frequency:    -3.7179950468
  - # 5
    frequency:    -3.6289344826
  - # 6
    frequency:     2.2033750090
  - # 7
    frequency:     2.2170810316
  - # 8
    frequency:     2.9858906314
  - # 9
    frequency:     4.1371636260
  - # 10
    frequency:     5.9315554727
  - # 11
    frequency:     6.0132302944
  - # 12
    frequency:     9.3433288305
  - # 13
    frequency:    20.6120556112
  - # 14
    frequency:    20.6322265426
  - # 15
    frequency:    22.3315678889

- q-position: [    0.1951220,    0.0243902,    0.0000000 ]
  weight: 24   
  band:
  - # 1
    frequency:    -4.7785542040
  - # 2
    frequency:    -4.7773479984
  - # 3
    frequency:    -4.2479419922
  - # 4
    frequency:    -3.4229181228
  - # 5
    frequency:    -3.3360323093
  - # 6
    frequency:     2.5837824078
  - # 7
    frequency:     2.5939100370
  - # 8
    frequency:     3.7999238880
  - # 9
    frequency:     4.5595640233
  - # 10
    frequency:     5.8884075003
  - # 11
    frequency:     5.9775782103
  - # 12
    frequency:    10.1387195085
  - # 13
    frequency:    20.6031332642
  - # 14
    frequency:    20.6227538793
  - # 15
    frequency:    22.7906616116

- q-position: [    0.2195122,    0.0243902,    0.0000000 ]
  weight: 24   
  band:
  - # 1
    frequency:    -4.7815791023
  - # 2
    frequency:    -4.7803038678
  - # 3
    frequency:    -4.0774703123
  - # 4
    frequency:    -3.1156297249
  - # 5
    frequency:    -3.0328580510
  - # 6
    frequency:     2.9743706579
  - # 7
    frequency:     2.9777261666
  - # 8
    frequency:     4.3841195605
  - # 9
    frequency:     4.9667907274
  - # 10
    frequency:     5.8439652676
  - # 11
    frequency:     5.9456541485
  - # 12
    frequency:    10.9377472802
  - # 13
    frequency:    20.5933000175
  - # 14
    frequency:    20.6123212892
  - # 15
    frequency:    23.2779433917

- q-position: [    0.2439024,    0.0243902,    0.0000000 ]
  weight: 24   
  band:
  - # 1
    frequency:    -4.7877768945
  - # 2
    frequency:    -4.7871821738
  - # 3
    frequency:    -3.8919811692
  - # 4
    frequency:    -2.8011545993
  - # 5
    frequency:    -2.7236471476
  - # 6
    frequency:     3.3564731665
  - # 7
    frequency:     3.3614889147
  - # 8
    frequency:     4.8215506372
  - # 9
    frequency:     5.3424735411
  - # 10
    frequency:     5.8013551334
  - # 11
    frequency:     5.9278980597
  - # 12
    frequency:    11.7191272097
  - # 13
    frequency:    20.5827194343
  - # 14
    frequency:    20.6011119074
  - # 15
    frequency:    23.7808662973

- q-position: [    0.2682927,    0.0243902,    0.0000000 ]
  weight: 24   
  band:
  - # 1
    frequency:    -4.7973519715
  - # 2
    frequency:    -4.7969091231
  - # 3
    frequency:    -3.6947060404
  - # 4
    frequency:    -2.4790667474
  - # 5
    frequency:    -2.4071441792
  - # 6
    frequency:     3.7140389158
  - # 7
    frequency:     3.7283064093
  - # 8
    frequency:     5.1639684194
  - # 9
    frequency:     5.6417242928
  - # 10
    frequency:     5.7655343405
  - # 11
    frequency:     5.9588149664
  - # 12
    frequency:    12.4661409595
  - # 13
    frequency:    20.5715989578
  - # 14
    frequency:    20.5893511341
  - # 15
    frequency:    24.2864420645

- q-position: [    0.2926829,    0.0243902,    0.0000000 ]
  weight: 24   
  band:
  - # 1
    frequency:    -4.8101065109
  - # 2
    frequency:    -4.8084860274
  - # 3
    frequency:    -3.4892005344
  - # 4
    frequency:    -2.1429522999
  - # 5
    frequency:    -2.0762370086
  - # 6
    frequency:     4.0335688253
  - # 7
    frequency:     4.0564542744
  - # 8
    frequency:     5.4289262379
  - # 9
    frequency:     5.7442909109
  - # 10
    frequency:     5.8026577824
  - # 11
    frequency:     6.1117235963
  - # 12
    frequency:    13.1657842314
  - # 13
    frequency:    20.5601904128
  - # 14
    frequency:    20.5773078648
  - # 15
    frequency:    24.7818069416

- q-position: [    0.3170732,    0.0243902,    0.0000000 ]
  weight: 24   
  band:
  - # 1
    frequency:    -4.8246265476
  - # 2
    frequency:    -4.8218152727
  - # 3
    frequency:    -3.2795633167
  - # 4
    frequency:    -1.7795932865
  - # 5
    frequency:    -1.7170206984
  - # 6
    frequency:     4.2987075999
  - # 7
    frequency:     4.3269312864
  - # 8
    frequency:     5.6007417910
  - # 9
    frequency:     5.7487972378
  - # 10
    frequency:     5.9301115333
  - # 11
    frequency:     6.3215771405
  - # 12
    frequency:    13.8078960590
  - # 13
    frequency:    20.5487868893
  - # 14
    frequency:    20.5652915321
  - # 15
    frequency:    25.2547017240

- q-position: [    0.3414634,    0.0243902,    0.0000000 ]
  weight: 24   
  band:
  - # 1
    frequency:    -4.8400101709
  - # 2
    frequency:    -4.8360717947
  - # 3
    frequency:    -3.0706342218
  - # 4
    frequency:    -1.3627781366
  - # 5
    frequency:    -1.3017465696
  - # 6
    frequency:     4.4958925976
  - # 7
    frequency:     4.5231363837
  - # 8
    frequency:     5.6993978866
  - # 9
    frequency:     5.7907709607
  - # 10
    frequency:     6.1023855410
  - # 11
    frequency:     6.5101293444
  - # 12
    frequency:    14.3844604294
  - # 13
    frequency:    20.5377154302
  - # 14
    frequency:    20.5536446987
  - # 15
    frequency:    25.6938345061

- q-position: [    0.3658537,    0.0243902,    0.0000000 ]
  weight: 24   
  band:
  - # 1
    frequency:    -4.8553268733
  - # 2
    frequency:    -4.8503725682
  - # 3
    frequency:    -2.8681886741
  - # 4
    frequency:    -0.8134916704
  - # 5
    frequency:    -0.7413973758
  - # 6
    frequency:     4.6205283511
  - # 7
    frequency:     4.6399065105
  - # 8
    frequency:     5.7859031275
  - # 9
    frequency:     5.8730356546
  - # 10
    frequency:     6.2815086874
  - # 11
    frequency:     6.6651310863
  - # 12
    frequency:    14.8891036919
  - # 13
    frequency:    20.5273252990
  - # 14
    frequency:    20.5427311114
  - # 15
    frequency:    26.0891263657

- q-position: [    0.3902439,    0.0243902,    0.0000000 ]
  weight: 24   
  band:
  - # 1
    frequency:    -4.8696750363
  - # 2
    frequency:    -4.8638456402
  - # 3
    frequency:    -2.6791004533
  - # 4
    frequency:     0.6384383062
  - # 5
    frequency:     0.6887633302
  - # 6
    frequency:     4.6825411119
  - # 7
    frequency:     4.6905803379
  - # 8
    frequency:     5.8795934099
  - # 9
    frequency:     5.9819887087
  - # 10
    frequency:     6.4434601085
  - # 11
    frequency:     6.7875446850
  - # 12
    frequency:    15.3167522240
  - # 13
    frequency:    20.5179720936
  - # 14
    frequency:    20.5329195504
  - # 15
    frequency:    26.4318591017

- q-position: [    0.4146341,    0.0243902,    0.0000000 ]
  weight: 24   
  band:
  - # 1
    frequency:    -4.8822329858
  - # 2
    frequency:    -4.8756879504
  - # 3
    frequency:    -2.5113821841
  - # 4
    frequency:     1.1522282765
  - # 5
    frequency:     1.1638952741
  - # 6
    frequency:     4.6990405966
  - # 7
    frequency:     4.7018926591
  - # 8
    frequency:     5.9722321899
  - # 9
    frequency:     6.0951810725
  - # 10
    frequency:     6.5799607792
  - # 11
    frequency:     6.8802002329
  - # 12
    frequency:    15.6634060157
  - # 13
    frequency:    20.5099985675
  - # 14
    frequency:    20.5245643683
  - # 15
    frequency:    26.7147510532

- q-position: [    0.4390244,    0.0243902,    0.0000000 ]
  weight: 24   
  band:
  - # 1
    frequency:    -4.8922999420
  - # 2
    frequency:    -4.8852103491
  - # 3
    frequency:    -2.3739271911
  - # 4
    frequency:     1.4352890170
  - # 5
    frequency:     1.4373614726
  - # 6
    frequency:     4.6872727338
  - # 7
    frequency:     4.6987237363
  - # 8
    frequency:     6.0512101185
  - # 9
    frequency:     6.1933799130
  - # 10
    frequency:     6.6869013585
  - # 11
    frequency:     6.9459165853
  - # 12
    frequency:    15.9259915965
  - # 13
    frequency:    20.5037136289
  - # 14
    frequency:    20.5179842071
  - # 15
    frequency:    26.9319860651

- q-position: [    0.4634146,    0.0243902,    0.0000000 ]
  weight: 24   
  band:
  - # 1
    frequency:    -4.8993264778
  - # 2
    frequency:    -4.8918705206
  - # 3
    frequency:    -2.2757179398
  - # 4
    frequency:     1.5988749541
  - # 5
    frequency:     1.6082427491
  - # 6
    frequency:     4.6710618805
  - # 7
    frequency:     4.6883411143
  - # 8
    frequency:     6.1076488421
  - # 9
    frequency:     6.2642975197
  - # 10
    frequency:     6.7610153980
  - # 11
    frequency:     6.9873608128
  - # 12
    frequency:    16.1022681235
  - # 13
    frequency:    20.4993715012
  - # 14
    frequency:    20.5134408908
  - # 15
    frequency:    27.0792159896

- q-position: [    0.4878049,    0.0243902,    0.0000000 ]
  weight: 24   
  band:
  - # 1
    frequency:    -4.9029355545
  - # 2
    frequency:    -4.8952954918
  - # 3
    frequency:    -2.2243791356
  - # 4
    frequency:     1.6773615347
  - # 5
    frequency:     1.6900991028
  - # 6
    frequency:     4.6604643003
  - # 7
    frequency:     4.6806871102
  - # 8
    frequency:     6.1368236932
  - # 9
    frequency:     6.3012131441
  - # 10
    frequency:     6.7991910098
  - # 11
    frequency:     7.0071311574
  - # 12
    frequency:    16.1907691682
  - # 13
    frequency:    20.4971533109
  - # 14
    frequency:    20.5111207732
  - # 15
    frequency:    27.1535515706

- q-position: [    0.0487805,    0.0487805,    0.0000000 ]
  weight: 12   
  band:
  - # 1
    frequency:    -4.9313038640
  - # 2
    frequency:    -4.7814909600
  - # 3
    frequency:    -4.6902923510
  - # 4
    frequency:    -4.6765215580
  - # 5
    frequency:    -4.5350438473
  - # 6
    frequency:    -4.0958713130
  - # 7
    frequency:     0.7838186869
  - # 8
    frequency:     0.9525180344
  - # 9
    frequency:     1.9053128112
  - # 10
    frequency:     6.0667629955
  - # 11
    frequency:     6.2751327672
  - # 12
    frequency:     6.4752575339
  - # 13
    frequency:    20.6379038392
  - # 14