phonopy:
  version: 1.12.0
  calculator: pwmat
  configuration:
    dim: "2 2 2"
    band_labels: "\Gamma  X  M \Gamma R X"
    band: "0.0000000000     0.0000000000     0.0000000000        0.5000000000     0.0000000000     0.0000000000        0.5000000000     0.0000000000     0.5000000000       0.0000000000     0.0000000000     0.0000000000        0.5000000000     0.5000000000     0.5000000000       0.5000000000     0.0000000000     0.0000000000"
    cell_filename: "../atom.config"
    primitive_axis: "1.0 0.0 0.0  0.0 1.0 0.0  0.0 0.0 1.0"
    fc_symmetry: "1"
    frequency_conversion_factor: "15.633302"
    fpitch: "0.1"
    dos: "TRUE"
    sigma: "0.1"
    band_points: "101"
    mp: "41 41 41"

supercell_matrix:
- [   2,   0,   0 ]
- [   0,   2,   0 ]
- [   0,   0,   2 ]

space_group:
  type: "Pm-3m"
  number: 221
  Hall_symbol: "-P 4 2 3"

primitive_matrix:
- [  1.000000000000000,  0.000000000000000,  0.000000000000000 ]
- [  0.000000000000000,  1.000000000000000,  0.000000000000000 ]
- [  0.000000000000000,  0.000000000000000,  1.000000000000000 ]

primitive_cell:
  lattice:
  - [     3.764660929000000,     0.000000000000000,     0.000000000000000 ] # a
  - [     0.000000000000000,     3.764660929000000,     0.000000000000000 ] # b
  - [     0.000000000000000,     0.000000000000000,     3.764660929000000 ] # c
  points:
  - symbol: Ca # 1
    coordinates: [  0.000000000000000,  0.000000000000000,  0.000000000000000 ]
    mass: 40.078000
  - symbol: Ti # 2
    coordinates: [  0.500000000000000,  0.500000000000000,  0.500000000000000 ]
    mass: 47.867000
  - symbol: O  # 3
    coordinates: [  0.000000000000000,  0.500000000000000,  0.500000000000000 ]
    mass: 15.999400
  - symbol: O  # 4
    coordinates: [  0.500000000000000,  0.000000000000000,  0.500000000000000 ]
    mass: 15.999400
  - symbol: O  # 5
    coordinates: [  0.500000000000000,  0.500000000000000,  0.000000000000000 ]
    mass: 15.999400
  reciprocal_lattice: # without 2pi
  - [     0.265628171795442,     0.000000000000000,     0.000000000000000 ] # a*
  - [     0.000000000000000,     0.265628171795442,     0.000000000000000 ] # b*
  - [     0.000000000000000,     0.000000000000000,     0.265628171795442 ] # c*

unit_cell:
  lattice:
  - [     3.764660929000000,     0.000000000000000,     0.000000000000000 ] # a
  - [     0.000000000000000,     3.764660929000000,     0.000000000000000 ] # b
  - [     0.000000000000000,     0.000000000000000,     3.764660929000000 ] # c
  points:
  - symbol: Ca # 1
    coordinates: [  0.000000000000000,  0.000000000000000,  0.000000000000000 ]
    mass: 40.078000
    reduced_to: 1
  - symbol: Ti # 2
    coordinates: [  0.500000000000000,  0.500000000000000,  0.500000000000000 ]
    mass: 47.867000
    reduced_to: 2
  - symbol: O  # 3
    coordinates: [  0.000000000000000,  0.500000000000000,  0.500000000000000 ]
    mass: 15.999400
    reduced_to: 3
  - symbol: O  # 4
    coordinates: [  0.500000000000000,  0.000000000000000,  0.500000000000000 ]
    mass: 15.999400
    reduced_to: 4
  - symbol: O  # 5
    coordinates: [  0.500000000000000,  0.500000000000000,  0.000000000000000 ]
    mass: 15.999400
    reduced_to: 5

supercell:
  lattice:
  - [     7.529321858000000,     0.000000000000000,     0.000000000000000 ] # a
  - [     0.000000000000000,     7.529321858000000,     0.000000000000000 ] # b
  - [     0.000000000000000,     0.000000000000000,     7.529321858000000 ] # c
  points:
  - symbol: Ca # 1
    coordinates: [  0.000000000000000,  0.000000000000000,  0.000000000000000 ]
    mass: 40.078000
    reduced_to: 1
  - symbol: Ca # 2
    coordinates: [  0.500000000000000,  0.000000000000000,  0.000000000000000 ]
    mass: 40.078000
    reduced_to: 1
  - symbol: Ca # 3
    coordinates: [  0.000000000000000,  0.500000000000000,  0.000000000000000 ]
    mass: 40.078000
    reduced_to: 1
  - symbol: Ca # 4
    coordinates: [  0.500000000000000,  0.500000000000000,  0.000000000000000 ]
    mass: 40.078000
    reduced_to: 1
  - symbol: Ca # 5
    coordinates: [  0.000000000000000,  0.000000000000000,  0.500000000000000 ]
    mass: 40.078000
    reduced_to: 1
  - symbol: Ca # 6
    coordinates: [  0.500000000000000,  0.000000000000000,  0.500000000000000 ]
    mass: 40.078000
    reduced_to: 1
  - symbol: Ca # 7
    coordinates: [  0.000000000000000,  0.500000000000000,  0.500000000000000 ]
    mass: 40.078000
    reduced_to: 1
  - symbol: Ca # 8
    coordinates: [  0.500000000000000,  0.500000000000000,  0.500000000000000 ]
    mass: 40.078000
    reduced_to: 1
  - symbol: Ti # 9
    coordinates: [  0.250000000000000,  0.250000000000000,  0.250000000000000 ]
    mass: 47.867000
    reduced_to: 9
  - symbol: Ti # 10
    coordinates: [  0.750000000000000,  0.250000000000000,  0.250000000000000 ]
    mass: 47.867000
    reduced_to: 9
  - symbol: Ti # 11
    coordinates: [  0.250000000000000,  0.750000000000000,  0.250000000000000 ]
    mass: 47.867000
    reduced_to: 9
  - symbol: Ti # 12
    coordinates: [  0.750000000000000,  0.750000000000000,  0.250000000000000 ]
    mass: 47.867000
    reduced_to: 9
  - symbol: Ti # 13
    coordinates: [  0.250000000000000,  0.250000000000000,  0.750000000000000 ]
    mass: 47.867000
    reduced_to: 9
  - symbol: Ti # 14
    coordinates: [  0.750000000000000,  0.250000000000000,  0.750000000000000 ]
    mass: 47.867000
    reduced_to: 9
  - symbol: Ti # 15
    coordinates: [  0.250000000000000,  0.750000000000000,  0.750000000000000 ]
    mass: 47.867000
    reduced_to: 9
  - symbol: Ti # 16
    coordinates: [  0.750000000000000,  0.750000000000000,  0.750000000000000 ]
    mass: 47.867000
    reduced_to: 9
  - symbol: O  # 17
    coordinates: [  0.000000000000000,  0.250000000000000,  0.250000000000000 ]
    mass: 15.999400
    reduced_to: 17
  - symbol: O  # 18
    coordinates: [  0.500000000000000,  0.250000000000000,  0.250000000000000 ]
    mass: 15.999400
    reduced_to: 17
  - symbol: O  # 19
    coordinates: [  0.000000000000000,  0.750000000000000,  0.250000000000000 ]
    mass: 15.999400
    reduced_to: 17
  - symbol: O  # 20
    coordinates: [  0.500000000000000,  0.750000000000000,  0.250000000000000 ]
    mass: 15.999400
    reduced_to: 17
  - symbol: O  # 21
    coordinates: [  0.000000000000000,  0.250000000000000,  0.750000000000000 ]
    mass: 15.999400
    reduced_to: 17
  - symbol: O  # 22
    coordinates: [  0.500000000000000,  0.250000000000000,  0.750000000000000 ]
    mass: 15.999400
    reduced_to: 17
  - symbol: O  # 23
    coordinates: [  0.000000000000000,  0.750000000000000,  0.750000000000000 ]
    mass: 15.999400
    reduced_to: 17
  - symbol: O  # 24
    coordinates: [  0.500000000000000,  0.750000000000000,  0.750000000000000 ]
    mass: 15.999400
    reduced_to: 17
  - symbol: O  # 25
    coordinates: [  0.250000000000000,  0.000000000000000,  0.250000000000000 ]
    mass: 15.999400
    reduced_to: 25
  - symbol: O  # 26
    coordinates: [  0.750000000000000,  0.000000000000000,  0.250000000000000 ]
    mass: 15.999400
    reduced_to: 25
  - symbol: O  # 27
    coordinates: [  0.250000000000000,  0.500000000000000,  0.250000000000000 ]
    mass: 15.999400
    reduced_to: 25
  - symbol: O  # 28
    coordinates: [  0.750000000000000,  0.500000000000000,  0.250000000000000 ]
    mass: 15.999400
    reduced_to: 25
  - symbol: O  # 29
    coordinates: [  0.250000000000000,  0.000000000000000,  0.750000000000000 ]
    mass: 15.999400
    reduced_to: 25
  - symbol: O  # 30
    coordinates: [  0.750000000000000,  0.000000000000000,  0.750000000000000 ]
    mass: 15.999400
    reduced_to: 25
  - symbol: O  # 31
    coordinates: [  0.250000000000000,  0.500000000000000,  0.750000000000000 ]
    mass: 15.999400
    reduced_to: 25
  - symbol: O  # 32
    coordinates: [  0.750000000000000,  0.500000000000000,  0.750000000000000 ]
    mass: 15.999400
    reduced_to: 25
  - symbol: O  # 33
    coordinates: [  0.250000000000000,  0.250000000000000,  0.000000000000000 ]
    mass: 15.999400
    reduced_to: 33
  - symbol: O  # 34
    coordinates: [  0.750000000000000,  0.250000000000000,  0.000000000000000 ]
    mass: 15.999400
    reduced_to: 33
  - symbol: O  # 35
    coordinates: [  0.250000000000000,  0.750000000000000,  0.000000000000000 ]
    mass: 15.999400
    reduced_to: 33
  - symbol: O  # 36
    coordinates: [  0.750000000000000,  0.750000000000000,  0.000000000000000 ]
    mass: 15.999400
    reduced_to: 33
  - symbol: O  # 37
    coordinates: [  0.250000000000000,  0.250000000000000,  0.500000000000000 ]
    mass: 15.999400
    reduced_to: 33
  - symbol: O  # 38
    coordinates: [  0.750000000000000,  0.250000000000000,  0.500000000000000 ]
    mass: 15.999400
    reduced_to: 33
  - symbol: O  # 39
    coordinates: [  0.250000000000000,  0.750000000000000,  0.500000000000000 ]
    mass: 15.999400
    reduced_to: 33
  - symbol: O  # 40
    coordinates: [  0.750000000000000,  0.750000000000000,  0.500000000000000 ]
    mass: 15.999400
    reduced_to: 33
