# Sigma = 0.100000
      -10.3100927019        0.0000000000
      -10.2100927019        0.0000000000
      -10.1100927019        0.0000000000
      -10.0100927019        0.0000000000
       -9.9100927019        0.0000000001
       -9.8100927019        0.0000000194
       -9.7100927019        0.0000022151
       -9.6100927019        0.0000999279
       -9.5100927019        0.0018440263
       -9.4100927019        0.0148048260
       -9.3100927019        0.0577371020
       -9.2100927019        0.1310211148
       -9.1100927019        0.2139957527
       -9.0100927019        0.2844077754
       -8.9100927019        0.3215064451
       -8.8100927019        0.3313301281
       -8.7100927019        0.3343790767
       -8.6100927019        0.3346108039
       -8.5100927019        0.3364773029
       -8.4100927019        0.3389986861
       -8.3100927019        0.3369569235
       -8.2100927019        0.3405622320
       -8.1100927019        0.3458350262
       -8.0100927019        0.3372168398
       -7.9100927019        0.3436463268
       -7.8100927019        0.3557894613
       -7.7100927019        0.3404931014
       -7.6100927019        0.3406165222
       -7.5100927019        0.3628626430
       -7.4100927019        0.3573747118
       -7.3100927019        0.3395039495
       -7.2100927019        0.3526884030
       -7.1100927019        0.3732221709
       -7.0100927019        0.3631279059
       -6.9100927019        0.3496447178
       -6.8100927019        0.3594728232
       -6.7100927019        0.3772540872
       -6.6100927019        0.3778061615
       -6.5100927019        0.3688490690
       -6.4100927019        0.3711016645
       -6.3100927019        0.3800417711
       -6.2100927019        0.3837247805
       -6.1100927019        0.3920333873
       -6.0100927019        0.4035073860
       -5.9100927019        0.4057477501
       -5.8100927019        0.3861374014
       -5.7100927019        0.3907857272
       -5.6100927019        0.4428573186
       -5.5100927019        0.4649554563
       -5.4100927019        0.4380520975
       -5.3100927019        0.4172330876
       -5.2100927019        0.4619404394
       -5.1100927019        0.5464842960
       -5.0100927019        0.6235132648
       -4.9100927019        0.7221089070
       -4.8100927019        0.7710852898
       -4.7100927019        0.7430375273
       -4.6100927019        0.7344242654
       -4.5100927019        0.7801979405
       -4.4100927019        0.7948502528
       -4.3100927019        0.7308839066
       -4.2100927019        0.6564627819
       -4.1100927019        0.6156726394
       -4.0100927019        0.5861570997
       -3.9100927019        0.5369869331
       -3.8100927019        0.5034710985
       -3.7100927019        0.5023779108
       -3.6100927019        0.4708348087
       -3.5100927019        0.4401289801
       -3.4100927019        0.4546911280
       -3.3100927019        0.4545397926
       -3.2100927019        0.4146302087
       -3.1100927019        0.3892293194
       -3.0100927019        0.4007327540
       -2.9100927019        0.4300995265
       -2.8100927019        0.4731868753
       -2.7100927019        0.4623737456
       -2.6100927019        0.3963252911
       -2.5100927019        0.3619709525
       -2.4100927019        0.3497992047
       -2.3100927019        0.3340073552
       -2.2100927019        0.3305928027
       -2.1100927019        0.3290659724
       -2.0100927019        0.2984425441
       -1.9100927019        0.2632770223
       -1.8100927019        0.2480568017
       -1.7100927019        0.2390155151
       -1.6100927019        0.2198056240
       -1.5100927019        0.2171940999
       -1.4100927019        0.2192525270
       -1.3100927019        0.2006630495
       -1.2100927019        0.1816742762
       -1.1100927019        0.1756957952
       -1.0100927019        0.1762638646
       -0.9100927019        0.1590911904
       -0.8100927019        0.1344892203
       -0.7100927019        0.1178590310
       -0.6100927019        0.1031376419
       -0.5100927019        0.0865242042
       -0.4100927019        0.0681631189
       -0.3100927019        0.0461432044
       -0.2100927019        0.0246739486
       -0.1100927019        0.0130692425
       -0.0100927019        0.0147716061
        0.0899072981        0.0242524564
        0.1899072981        0.0334082632
        0.2899072981        0.0468751777
        0.3899072981        0.0620319259
        0.4899072981        0.0773559988
        0.5899072981        0.0978789924
        0.6899072981        0.1211891893
        0.7899072981        0.1423764414
        0.8899072981        0.1534608334
        0.9899072981        0.1650342441
        1.0899072981        0.1824711139
        1.1899072981        0.2083893973
        1.2899072981        0.2328155247
        1.3899072981        0.2499534506
        1.4899072981        0.2764687504
        1.5899072981        0.3031742057
        1.6899072981        0.3237214185
        1.7899072981        0.3525654060
        1.8899072981        0.3922324391
        1.9899072981        0.4357172144
        2.0899072981        0.4788264925
        2.1899072981        0.5239283118
        2.2899072981        0.5738160590
        2.3899072981        0.6374278596
        2.4899072981        0.7201224868
        2.5899072981        0.8257751419
        2.6899072981        0.9442212522
        2.7899072981        1.0795709377
        2.8899072981        1.3424293151
        2.9899072981        1.8158357000
        3.0899072981        2.1369097245
        3.1899072981        1.9965152255
        3.2899072981        1.6672940582
        3.3899072981        1.3839385216
        3.4899072981        1.1376193484
        3.5899072981        0.9285547008
        3.6899072981        0.7808740055
        3.7899072981        0.6650806555
        3.8899072981        0.5941131061
        3.9899072981        0.5893545904
        4.0899072981        0.5856469549
        4.1899072981        0.5730407298
        4.2899072981        0.6318222130
        4.3899072981        0.7219464968
        4.4899072981        0.7982954682
        4.5899072981        0.8857369719
        4.6899072981        0.8444505575
        4.7899072981        0.6716902288
        4.8899072981        0.6469803342
        4.9899072981        0.7412921284
        5.0899072981        0.7151980108
        5.1899072981        0.5686121252
        5.2899072981        0.4766399501
        5.3899072981        0.5133824666
        5.4899072981        0.5755659625
        5.5899072981        0.5365671869
        5.6899072981        0.4763041381
        5.7899072981        0.5334075735
        5.8899072981        0.6361095646
        5.9899072981        0.6833946056
        6.0899072981        0.7120173696
        6.1899072981        0.7371921731
        6.2899072981        0.6941082031
        6.3899072981        0.6079175054
        6.4899072981        0.5472819029
        6.5899072981        0.5597002761
        6.6899072981        0.6428763054
        6.7899072981        0.6910406690
        6.8899072981        0.6211725899
        6.9899072981        0.5255941713
        7.0899072981        0.5098362903
        7.1899072981        0.5582207316
        7.2899072981        0.6203858082
        7.3899072981        0.6551671424
        7.4899072981        0.6233929707
        7.5899072981        0.5267643760
        7.6899072981        0.4927497821
        7.7899072981        0.5614674938
        7.8899072981        0.6090863128
        7.9899072981        0.6014698410
        8.0899072981        0.6133068599
        8.1899072981        0.6235483813
        8.2899072981        0.5410708659
        8.3899072981        0.4662313740
        8.4899072981        0.5135370256
        8.5899072981        0.6470535491
        8.6899072981        0.6922565085
        8.7899072981        0.6126080793
        8.8899072981        0.5282719228
        8.9899072981        0.5233285074
        9.0899072981        0.5619808774
        9.1899072981        0.5687336923
        9.2899072981        0.5669244898
        9.3899072981        0.6023503387
        9.4899072981        0.6222703683
        9.5899072981        0.6433283175
        9.6899072981        0.6269100286
        9.7899072981        0.5335739310
        9.8899072981        0.4745774584
        9.9899072981        0.4900711592
       10.0899072981        0.5873507741
       10.1899072981        0.7011896692
       10.2899072981        0.7168972166
       10.3899072981        0.6160194512
       10.4899072981        0.5006692977
       10.5899072981        0.4703793532
       10.6899072981        0.4856851697
       10.7899072981        0.5259712182
       10.8899072981        0.6460596584
       10.9899072981        0.7608690914
       11.0899072981        0.6684989193
       11.1899072981        0.5140401166
       11.2899072981        0.4436774883
       11.3899072981        0.4222069863
       11.4899072981        0.4464522751
       11.5899072981        0.5522750220
       11.6899072981        0.6091368513
       11.7899072981        0.4373346051
       11.8899072981        0.2145902454
       11.9899072981        0.1172211197
       12.0899072981        0.1334063316
       12.1899072981        0.2259772873
       12.2899072981        0.3349605501
       12.3899072981        0.3638550015
       12.4899072981        0.2592012720
       12.5899072981        0.1586596659
       12.6899072981        0.1591848471
       12.7899072981        0.2089619673
       12.8899072981        0.2801701473
       12.9899072981        0.3310273674
       13.0899072981        0.3186501178
       13.1899072981        0.2450252443
       13.2899072981        0.2026297974
       13.3899072981        0.2492760659
       13.4899072981        0.3054557946
       13.5899072981        0.3189319881
       13.6899072981        0.3237335714
       13.7899072981        0.3084052924
       13.8899072981        0.2978752997
       13.9899072981        0.3233812509
       14.0899072981        0.3436667784
       14.1899072981        0.3701710453
       14.2899072981        0.4101232591
       14.3899072981        0.4344651183
       14.4899072981        0.4329918449
       14.5899072981        0.4434608423
       14.6899072981        0.4812339804
       14.7899072981        0.5072039584
       14.8899072981        0.4951976916
       14.9899072981        0.4924120679
       15.0899072981        0.5167079157
       15.1899072981        0.5393533539
       15.2899072981        0.5483231575
       15.3899072981        0.5421562531
       15.4899072981        0.5205475914
       15.5899072981        0.4577426192
       15.6899072981        0.3699225269
       15.7899072981        0.2997618596
       15.8899072981        0.2444728290
       15.9899072981        0.1860712740
       16.0899072981        0.1230029965
       16.1899072981        0.0587493251
       16.2899072981        0.0161825407
       16.3899072981        0.0021732989
       16.4899072981        0.0001272644
       16.5899072981        0.0000030333
       16.6899072981        0.0000000283
       16.7899072981        0.0000000001
       16.8899072981        0.0000000000
       16.9899072981        0.0000000000
       17.0899072981        0.0000000000
       17.1899072981        0.0000000000
       17.2899072981        0.0000000000
       17.3899072981        0.0000000000
       17.4899072981        0.0000000000
       17.5899072981        0.0000000000
       17.6899072981        0.0000000000
       17.7899072981        0.0000000000
       17.8899072981        0.0000000000
       17.9899072981        0.0000000000
       18.0899072981        0.0000000000
       18.1899072981        0.0000000000
       18.2899072981        0.0000000000
       18.3899072981        0.0000000000
       18.4899072981        0.0000000000
       18.5899072981        0.0000000000
       18.6899072981        0.0000000000
       18.7899072981        0.0000000000
       18.8899072981        0.0000000000
       18.9899072981        0.0000000000
       19.0899072981        0.0000000000
       19.1899072981        0.0000000000
       19.2899072981        0.0000000000
       19.3899072981        0.0000000000
       19.4899072981        0.0000000000
       19.5899072981        0.0000000001
       19.6899072981        0.0000000249
       19.7899072981        0.0000029832
       19.8899072981        0.0001487917
       19.9899072981        0.0033007140
       20.0899072981        0.0353842040
       20.1899072981        0.2004884622
       20.2899072981        0.6710796641
       20.3899072981        1.5118165468
       20.4899072981        2.4485373854
       20.5899072981        2.8464060085
       20.6899072981        2.4791122931
       20.7899072981        1.8952447361
       20.8899072981        1.6425948807
       20.9899072981        1.7375377835
       21.0899072981        1.8036502516
       21.1899072981        1.4878716734
       21.2899072981        0.8829004422
       21.3899072981        0.3525550655
       21.4899072981        0.0922509110
       21.5899072981        0.0279284594
       21.6899072981        0.0195665254
       21.7899072981        0.0185522586
       21.8899072981        0.0216929933
       21.9899072981        0.0247768603
       22.0899072981        0.0240897842
       22.1899072981        0.0221876820
       22.2899072981        0.0255245834
       22.3899072981        0.0305655610
       22.4899072981        0.0298840358
       22.5899072981        0.0277585544
       22.6899072981        0.0283757313
       22.7899072981        0.0332581542
       22.8899072981        0.0378421925
       22.9899072981        0.0363149869
       23.0899072981        0.0325487159
       23.1899072981        0.0348631903
       23.2899072981        0.0423781476
       23.3899072981        0.0449427878
       23.4899072981        0.0434154682
       23.5899072981        0.0408741665
       23.6899072981        0.0415921953
       23.7899072981        0.0500309150
       23.8899072981        0.0559058402
       23.9899072981        0.0525130620
       24.0899072981        0.0484183645
       24.1899072981        0.0518513930
       24.2899072981        0.0604921539
       24.3899072981        0.0657365504
       24.4899072981        0.0647469295
       24.5899072981        0.0604578087
       24.6899072981        0.0617858781
       24.7899072981        0.0747182836
       24.8899072981        0.0812154886
       24.9899072981        0.0764331043
       25.0899072981        0.0738662612
       25.1899072981        0.0811285111
       25.2899072981        0.0931739305
       25.3899072981        0.0975106249
       25.4899072981        0.0932041632
       25.5899072981        0.0935007214
       25.6899072981        0.1095031436
       25.7899072981        0.1197166651
       25.8899072981        0.1144234108
       25.9899072981        0.1186049023
       26.0899072981        0.1358953314
       26.1899072981        0.1445911449
       26.2899072981        0.1452252745
       26.3899072981        0.1581905183
       26.4899072981        0.1762649248
       26.5899072981        0.1842998727
       26.6899072981        0.2018717386
       26.7899072981        0.2264784306
       26.8899072981        0.2533380810
       26.9899072981        0.3010773456
       27.0899072981        0.3580490628
       27.1899072981        0.3792740728
       27.2899072981        0.3492536107
       27.3899072981        0.3148377431
       27.4899072981        0.2959647559
       27.5899072981        0.2855555638
       27.6899072981        0.2790531374
       27.7899072981        0.2749462910
       27.8899072981        0.2723414157
       27.9899072981        0.2709802986
       28.0899072981        0.2705594422
       28.1899072981        0.2709458045
       28.2899072981        0.2718323099
       28.3899072981        0.2705842278
       28.4899072981        0.2562850522
       28.5899072981        0.2188732520
       28.6899072981        0.1741920759
       28.7899072981        0.1413966163
       28.8899072981        0.1193551521
       28.9899072981        0.1023744807
       29.0899072981        0.0877855261
       29.1899072981        0.0743522700
       29.2899072981        0.0611348588
       29.3899072981        0.0468585123
       29.4899072981        0.0301244704
       29.5899072981        0.0133835797
       29.6899072981        0.0033115772
       29.7899072981        0.0003882557
       29.8899072981        0.0000195570
       29.9899072981        0.0000004003
       30.0899072981        0.0000000032
       30.1899072981        0.0000000000
       30.2899072981        0.0000000000
       30.3899072981        0.0000000000
       30.4899072981        0.0000000000
       30.5899072981        0.0000000000
