calculator: pwmat
nqpoint: 2107   
npath: 7      
segment_nqpoint:
- 301
- 301
- 301
- 301
- 301
- 301
- 301
reciprocal_lattice:
- [   0.25892001,  -0.14948754,  -0.10566814 ] # a*
- [   0.00000000,   0.29897507,  -0.10566814 ] # b*
- [   0.00000000,   0.00000000,   0.31700441 ] # c*
natom: 2      
lattice:
- [     3.862196695000000,     0.000000000000000,     0.000000000000000 ] # a
- [     1.931098348000000,     3.344760453000000,    -0.000000000000000 ] # b
- [     1.931098348000000,     1.114920151000000,     3.154530216000000 ] # c
points:
- symbol: Si # 1
  coordinates: [  0.999999999000000,  0.999999999000000,  0.000000002000000 ]
  mass: 28.085500
- symbol: Si # 2
  coordinates: [  0.250000098000000,  0.250000098000000,  0.249999707000000 ]
  mass: 28.085500
supercell_matrix:
- [    4,    0,    0 ]
- [    0,    4,    0 ]
- [    0,    0,    4 ]

phonon:
- q-position: [    0.0000000,    0.0000000,    0.0000000 ]
  distance:    0.0000000
  label: '\Gamma'
  band:
  - # 1
    frequency:    4.1376212385
  - # 2
    frequency:    4.2456707824
  - # 3
    frequency:    4.2456707834
  - # 4
    frequency:  503.3832076856
  - # 5
    frequency:  503.8201198343
  - # 6
    frequency:  503.8201199484

- q-position: [    0.0008333,    0.0020833,    0.0020833 ]
  distance:    0.0006472
  band:
  - # 1
    frequency:    4.2122699411
  - # 2
    frequency:    4.2942313356
  - # 3
    frequency:    4.5478153448
  - # 4
    frequency:  503.3821379148
  - # 5
    frequency:  503.8188624023
  - # 6
    frequency:  503.8193587037

- q-position: [    0.0016667,    0.0041667,    0.0041667 ]
  distance:    0.0012945
  band:
  - # 1
    frequency:    4.3532641015
  - # 2
    frequency:    4.4400050199
  - # 3
    frequency:    5.4116786108
  - # 4
    frequency:  503.3789275916
  - # 5
    frequency:  503.8150897901
  - # 6
    frequency:  503.8170762172

- q-position: [    0.0025000,    0.0062500,    0.0062500 ]
  distance:    0.0019417
  band:
  - # 1
    frequency:    4.5649961529
  - # 2
    frequency:    4.6792572156
  - # 3
    frequency:    6.6098257494
  - # 4
    frequency:  503.3735737074
  - # 5
    frequency:  503.8088021388
  - # 6
    frequency:  503.8132751173

- q-position: [    0.0033333,    0.0083333,    0.0083333 ]
  distance:    0.0025889
  band:
  - # 1
    frequency:    4.8398029136
  - # 2
    frequency:    4.9999326500
  - # 3
    frequency:    7.9914414366
  - # 4
    frequency:  503.3660713252
  - # 5
    frequency:  503.7999995025
  - # 6
    frequency:  503.8079598892

- q-position: [    0.0041667,    0.0104167,    0.0104167 ]
  distance:    0.0032362
  band:
  - # 1
    frequency:    5.1689065703
  - # 2
    frequency:    5.3866929941
  - # 3
    frequency:    9.4763168714
  - # 4
    frequency:  503.3564136939
  - # 5
    frequency:  503.7886819578
  - # 6
    frequency:  503.8011366515

- q-position: [    0.0050000,    0.0125000,    0.0125000 ]
  distance:    0.0038834
  band:
  - # 1
    frequency:    5.5434277142
  - # 2
    frequency:    5.8257524540
  - # 3
    frequency:   11.0226664358
  - # 4
    frequency:  503.3445924029
  - # 5
    frequency:  503.7748496046
  - # 6
    frequency:  503.7928130012

- q-position: [    0.0058333,    0.0145833,    0.0145833 ]
  distance:    0.0045306
  band:
  - # 1
    frequency:    5.9551642684
  - # 2
    frequency:    6.3058993718
  - # 3
    frequency:   12.6077855671
  - # 4
    frequency:  503.3305975739
  - # 5
    frequency:  503.7585025675
  - # 6
    frequency:  503.7829978218

- q-position: [    0.0066667,    0.0166667,    0.0166667 ]
  distance:    0.0051779
  band:
  - # 1
    frequency:    6.3970988161
  - # 2
    frequency:    6.8183314840
  - # 3
    frequency:   14.2186134975
  - # 4
    frequency:  503.3144180834
  - # 5
    frequency:  503.7396409971
  - # 6
    frequency:  503.7717010608

- q-position: [    0.0075000,    0.0187500,    0.0187500 ]
  distance:    0.0058251
  band:
  - # 1
    frequency:    6.8634801018
  - # 2
    frequency:    7.3562518914
  - # 3
    frequency:   15.8472119326
  - # 4
    frequency:  503.2960418084
  - # 5
    frequency:  503.7182650718
  - # 6
    frequency:  503.7589334829

- q-position: [    0.0083333,    0.0208333,    0.0208333 ]
  distance:    0.0064724
  band:
  - # 1
    frequency:    7.3496969928
  - # 2
    frequency:    7.9144461916
  - # 3
    frequency:   17.4885150668
  - # 4
    frequency:  503.2754558895
  - # 5
    frequency:  503.6943750004
  - # 6
    frequency:  503.7447064068

- q-position: [    0.0091667,    0.0229167,    0.0229167 ]
  distance:    0.0071196
  band:
  - # 1
    frequency:    7.8520884133
  - # 2
    frequency:    8.4889135707
  - # 3
    frequency:   19.1391511308
  - # 4
    frequency:  503.2526470005
  - # 5
    frequency:  503.6679710246
  - # 6
    frequency:  503.7290314344

- q-position: [    0.0100000,    0.0250000,    0.0250000 ]
  distance:    0.0077668
  band:
  - # 1
    frequency:    8.3677549414
  - # 2
    frequency:    9.0765710701
  - # 3
    frequency:   20.7967929679
  - # 4
    frequency:  503.2276016183
  - # 5
    frequency:  503.6390534226
  - # 6
    frequency:  503.7119201799

- q-position: [    0.0108333,    0.0270833,    0.0270833 ]
  distance:    0.0084141
  band:
  - # 1
    frequency:    8.8943961406
  - # 2
    frequency:    9.6750267539
  - # 3
    frequency:   22.4597830976
  - # 4
    frequency:  503.2003062820
  - # 5
    frequency:  503.6076225125
  - # 6
    frequency:  503.6933840084

- q-position: [    0.0116667,    0.0291667,    0.0291667 ]
  distance:    0.0090613
  band:
  - # 1
    frequency:    9.4301786876
  - # 2
    frequency:   10.2824095774
  - # 3
    frequency:   24.1269080986
  - # 4
    frequency:  503.1707478350
  - # 5
    frequency:  503.5736786577
  - # 6
    frequency:  503.6734337920

- q-position: [    0.0125000,    0.0312500,    0.0312500 ]
  distance:    0.0097085
  band:
  - # 1
    frequency:    9.9736327852
  - # 2
    frequency:   10.8972430217
  - # 3
    frequency:   25.7972577964
  - # 4
    frequency:  503.1389136428
  - # 5
    frequency:  503.5372222722
  - # 6
    frequency:  503.6520796893

- q-position: [    0.0133333,    0.0333333,    0.0333333 ]
  distance:    0.0103558
  band:
  - # 1
    frequency:   10.5235720515
  - # 2
    frequency:   11.5183514375
  - # 3
    frequency:   27.4701345050
  - # 4
    frequency:  503.1047917794
  - # 5
    frequency:  503.4982538269
  - # 6
    frequency:  503.6293309547

- q-position: [    0.0141667,    0.0354167,    0.0354167 ]
  distance:    0.0110030
  band:
  - # 1
    frequency:   11.0790319710
  - # 2
    frequency:   12.1447904636
  - # 3
    frequency:   29.1449928473
  - # 4
    frequency:  503.0683711798
  - # 5
    frequency:  503.4567738580
  - # 6
    frequency:  503.6051957815

- q-position: [    0.0150000,    0.0375000,    0.0375000 ]
  distance:    0.0116502
  band:
  - # 1
    frequency:   11.6392226652
  - # 2
    frequency:   12.7757950634
  - # 3
    frequency:   30.8213988324
  - # 4
    frequency:  503.0296417547
  - # 5
    frequency:  503.4127829762
  - # 6
    frequency:  503.5796811810

- q-position: [    0.0158333,    0.0395833,    0.0395833 ]
  distance:    0.0122975
  band:
  - # 1
    frequency:   12.2034925764
  - # 2
    frequency:   13.4107404532
  - # 3
    frequency:   32.4990013981
  - # 4
    frequency:  502.9885944686
  - # 5
    frequency:  503.3662818771
  - # 6
    frequency:  503.5527928971

- q-position: [    0.0166667,    0.0416667,    0.0416667 ]
  distance:    0.0129447
  band:
  - # 1
    frequency:   12.7713004315
  - # 2
    frequency:   14.0491124972
  - # 3
    frequency:   34.1775122189
  - # 4
    frequency:  502.9452213793
  - # 5
    frequency:  503.3172713552
  - # 6
    frequency:  503.5245353575

- q-position: [    0.0175000,    0.0437500,    0.0437500 ]
  distance:    0.0135919
  band:
  - # 1
    frequency:   13.3421934818
  - # 2
    frequency:   14.6904850930
  - # 3
    frequency:   35.8566911204
  - # 4
    frequency:  502.8995156437
  - # 5
    frequency:  503.2657523184
  - # 6
    frequency:  503.4949116559

- q-position: [    0.0183333,    0.0458333,    0.0458333 ]
  distance:    0.0142392
  band:
  - # 1
    frequency:   13.9157905142
  - # 2
    frequency:   15.3345027529
  - # 3
    frequency:   37.5363353674
  - # 4
    frequency:  502.8514714914
  - # 5
    frequency:  503.2117258071
  - # 6
    frequency:  503.4639235646

- q-position: [    0.0191667,    0.0479167,    0.0479167 ]
  distance:    0.0148864
  band:
  - # 1
    frequency:   14.4917685018
  - # 2
    frequency:   15.9808670782
  - # 3
    frequency:   39.2162716821
  - # 4
    frequency:  502.8010841703
  - # 5
    frequency:  503.1551930156
  - # 6
    frequency:  503.4315715713

- q-position: [    0.0200000,    0.0500000,    0.0500000 ]
  distance:    0.0155337
  band:
  - # 1
    frequency:   15.0698520457
  - # 2
    frequency:   16.6293261701
  - # 3
    frequency:   40.8963502146
  - # 4
    frequency:  502.7483498686
  - # 5
    frequency:  503.0961553181
  - # 6
    frequency:  503.3978549356

- q-position: [    0.0208333,    0.0520833,    0.0520833 ]
  distance:    0.0161809
  band:
  - # 1
    frequency:   15.6498049699
  - # 2
    frequency:   17.2796662764
  - # 3
    frequency:   42.5764399323
  - # 4
    frequency:  502.6932656161
  - # 5
    frequency:  503.0346142998
  - # 6
    frequency:  503.3627717615

- q-position: [    0.0216667,    0.0541667,    0.0541667 ]
  distance:    0.0168281
  band:
  - # 1
    frequency:   16.2314235867
  - # 2
    frequency:   17.9317051516
  - # 3
    frequency:   44.2564250544
  - # 4
    frequency:  502.6358291691
  - # 5
    frequency:  502.9705717935
  - # 6
    frequency:  503.3263190803

- q-position: [    0.0225000,    0.0562500,    0.0562500 ]
  distance:    0.0174754
  band:
  - # 1
    frequency:   16.8145312659
  - # 2
    frequency:   18.5852867411
  - # 3
    frequency:   45.9362022647
  - # 4
    frequency:  502.5760388816
  - # 5
    frequency:  502.9040299245
  - # 6
    frequency:  503.2884929399

- q-position: [    0.0233333,    0.0583333,    0.0583333 ]
  distance:    0.0181226
  band:
  - # 1
    frequency:   17.3989740292
  - # 2
    frequency:   19.2402768966
  - # 3
    frequency:   47.6156785134
  - # 4
    frequency:  502.5138935650
  - # 5
    frequency:  502.8349911629
  - # 6
    frequency:  503.2492884983

- q-position: [    0.0241667,    0.0604167,    0.0604167 ]
  distance:    0.0187698
  band:
  - # 1
    frequency:   17.9846169540
  - # 2
    frequency:   19.8965598990
  - # 3
    frequency:   49.2947692668
  - # 4
    frequency:  502.4493923361
  - # 5
    frequency:  502.7634583882
  - # 6
    frequency:  503.2087001159

- q-position: [    0.0250000,    0.0625000,    0.0625000 ]
  distance:    0.0194171
  band:
  - # 1
    frequency:   18.5713412216
  - # 2
    frequency:   20.5540356203
  - # 3
    frequency:   50.9733971019
  - # 4
    frequency:  502.3825344555
  - # 5
    frequency:  502.6894349659
  - # 6
    frequency:  503.1667214464

- q-position: [    0.0258333,    0.0645833,    0.0645833 ]
  distance:    0.0200643
  band:
  - # 1
    frequency:   19.1590416811
  - # 2
    frequency:   21.2126171922
  - # 3
    frequency:   52.6514905707
  - # 4
    frequency:  502.3133191534
  - # 5
    frequency:  502.6129248404
  - # 6
    frequency:  503.1233455238

- q-position: [    0.0266667,    0.0666667,    0.0666667 ]
  distance:    0.0207115
  band:
  - # 1
    frequency:   19.7476248276
  - # 2
    frequency:   21.8722290805
  - # 3
    frequency:   54.3289832737
  - # 4
    frequency:  502.2417454409
  - # 5
    frequency:  502.5339326483
  - # 6
    frequency:  503.0785648439

- q-position: [    0.0275000,    0.0687500,    0.0687500 ]
  distance:    0.0213588
  band:
  - # 1
    frequency:   20.3370071165
  - # 2
    frequency:   22.5328054858
  - # 3
    frequency:   56.0058131010
  - # 4
    frequency:  502.1678119040
  - # 5
    frequency:  502.4524638547
  - # 6
    frequency:  503.0323714401

- q-position: [    0.0283333,    0.0708333,    0.0708333 ]
  distance:    0.0220060
  band:
  - # 1
    frequency:   20.9271135504
  - # 2
    frequency:   23.1942890095
  - # 3
    frequency:   57.6819216053
  - # 4
    frequency:  502.0915164738
  - # 5
    frequency:  502.3685249198
  - # 6
    frequency:  502.9847569525

- q-position: [    0.0291667,    0.0729167,    0.0729167 ]
  distance:    0.0226532
  band:
  - # 1
    frequency:   21.5178764894
  - # 2
    frequency:   23.8566295335
  - # 3
    frequency:   59.3572534820
  - # 4
    frequency:  502.0128561675
  - # 5
    frequency:  502.2821235020
  - # 6
    frequency:  502.9357126911

- q-position: [    0.0300000,    0.0750000,    0.0750000 ]
  distance:    0.0233005
  band:
  - # 1
    frequency:   22.1092346453
  - # 2
    frequency:   24.5197832771
  - # 3
    frequency:   61.0317561340
  - # 4
    frequency:  501.9318267903
  - # 5
    frequency:  502.1932687050
  - # 6
    frequency:  502.8852296924

- q-position: [    0.0308333,    0.0770833,    0.0770833 ]
  distance:    0.0239477
  band:
  - # 1
    frequency:   22.7011322271
  - # 2
    frequency:   25.1837119986
  - # 3
    frequency:   62.7053793078
  - # 4
    frequency:  501.8484225903
  - # 5
    frequency:  502.1019713800
  - # 6
    frequency:  502.8332987704

- q-position: [    0.0316667,    0.0791667,    0.0791667 ]
  distance:    0.0245950
  band:
  - # 1
    frequency:   23.2935182121
  - # 2
    frequency:   25.8483823157
  - # 3
    frequency:   64.3780747857
  - # 4
    frequency:  501.7626358520
  - # 5
    frequency:  502.0082444930
  - # 6
    frequency:  502.7799105612

- q-position: [    0.0325000,    0.0812500,    0.0812500 ]
  distance:    0.0252422
  band:
  - # 1
    frequency:   23.8863457226
  - # 2
    frequency:   26.5137651265
  - # 3
    frequency:   66.0497961251
  - # 4
    frequency:  501.6744564171
  - # 5
    frequency:  501.9121035720
  - # 6
    frequency:  502.7250555637

- q-position: [    0.0333333,    0.0833333,    0.0833333 ]
  distance:    0.0258894
  band:
  - # 1
    frequency:   24.4795714893
  - # 2
    frequency:   27.1798351123
  - # 3
    frequency:   67.7204984369
  - # 4
    frequency:  501.5838711156
  - # 5
    frequency:  501.8135672463
  - # 6
    frequency:  502.6687241750

- q-position: [    0.0341667,    0.0854167,    0.0854167 ]
  distance:    0.0265367
  band:
  - # 1
    frequency:   25.0731553897
  - # 2
    frequency:   27.8465703108
  - # 3
    frequency:   69.3901381960
  - # 4
    frequency:  501.4908630960
  - # 5
    frequency:  501.7126578935
  - # 6
    frequency:  502.6109067219

- q-position: [    0.0350000,    0.0875000,    0.0875000 ]
  distance:    0.0271839
  band:
  - # 1
    frequency:   25.6670600478
  - # 2
    frequency:   28.5139517465
  - # 3
    frequency:   71.0586730781
  - # 4
    frequency:  501.3954110417
  - # 5
    frequency:  501.6094024016
  - # 6
    frequency:  502.5515934888

- q-position: [    0.0358333,    0.0895833,    0.0895833 ]
  distance:    0.0278311
  band:
  - # 1
    frequency:   26.2612504871
  - # 2
    frequency:   29.1819631113
  - # 3
    frequency:   72.7260618203
  - # 4
    frequency:  501.2974882742
  - # 5
    frequency:  501.5038330492
  - # 6
    frequency:  502.4907747433

- q-position: [    0.0366667,    0.0916667,    0.0916667 ]
  distance:    0.0284784
  band:
  - # 1
    frequency:   26.8556938283
  - # 2
    frequency:   29.8505904865
  - # 3
    frequency:   74.3922640994
  - # 4
    frequency:  501.1970617588
  - # 5
    frequency:  501.3959884848
  - # 6
    frequency:  502.4284407577

- q-position: [    0.0375000,    0.0937500,    0.0937500 ]
  distance:    0.0291256
  band:
  - # 1
    frequency:   27.4503590255
  - # 2
    frequency:   30.5198220998
  - # 3
    frequency:   76.0572404269
  - # 4
    frequency:  501.0940910636
  - # 5
    frequency:  501.2859147555
  - # 6
    frequency:  502.3645818299

- q-position: [    0.0383333,    0.0958333,    0.0958333 ]
  distance:    0.0297728
  band:
  - # 1
    frequency:   28.0452166354
  - # 2
    frequency:   31.1896481130
  - # 3
    frequency:   77.7209520579
  - # 4
    frequency:  500.9885273748
  - # 5
    frequency:  501.1736662822
  - # 6
    frequency:  502.2991883015

- q-position: [    0.0391667,    0.0979167,    0.0979167 ]
  distance:    0.0304201
  band:
  - # 1
    frequency:   28.6402386137
  - # 2
    frequency:   31.8600604354
  - # 3
    frequency:   79.3833609108
  - # 4
    frequency:  500.8803127492
  - # 5
    frequency:  501.0593065977
  - # 6
    frequency:  502.2322505744

- q-position: [    0.0400000,    0.1000000,    0.1000000 ]
  distance:    0.0310673
  band:
  - # 1
    frequency:   29.2353981377
  - # 2
    frequency:   32.5310525596
  - # 3
    frequency:   81.0444294974
  - # 4
    frequency:  500.7693798877
  - # 5
    frequency:  500.9429085666
  - # 6
    frequency:  502.1637591265

- q-position: [    0.0408333,    0.1020833,    0.1020833 ]
  distance:    0.0317145
  band:
  - # 1
    frequency:   29.8306694479
  - # 2
    frequency:   33.2026194156
  - # 3
    frequency:   82.7041208618
  - # 4
    frequency:  500.6556528113
  - # 5
    frequency:  500.8245537029
  - # 6
    frequency:  502.0937045265

- q-position: [    0.0416667,    0.1041667,    0.1041667 ]
  distance:    0.0323618
  band:
  - # 1
    frequency:   30.4260277097
  - # 2
    frequency:   33.8747572421
  - # 3
    frequency:   84.3623985262
  - # 4
    frequency:  500.5390488785
  - # 5
    frequency:  500.7043301479
  - # 6
    frequency:  502.0220774471

- q-position: [    0.0425000,    0.1062500,    0.1062500 ]
  distance:    0.0330090
  band:
  - # 1
    frequency:   31.0214488899
  - # 2
    frequency:   34.5474634719
  - # 3
    frequency:   86.0192264430
  - # 4
    frequency:  500.4194824931
  - # 5
    frequency:  500.5823289574
  - # 6
    frequency:  501.9488686783

- q-position: [    0.0433333,    0.1083333,    0.1083333 ]
  distance:    0.0336563
  band:
  - # 1
    frequency:   31.6169096475
  - # 2
    frequency:   35.2207366291
  - # 3
    frequency:   87.6745689526
  - # 4
    frequency:  500.2968705446
  - # 5
    frequency:  500.4586386582
  - # 6
    frequency:  501.8740691402

- q-position: [    0.0441667,    0.1104167,    0.1104167 ]
  distance:    0.0343035
  band:
  - # 1
    frequency:   32.2123872367
  - # 2
    frequency:   35.8945762376
  - # 3
    frequency:   89.3283907462
  - # 4
    frequency:  500.1711390588
  - # 5
    frequency:  500.3333385936
  - # 6
    frequency:  501.7976698949

- q-position: [    0.0450000,    0.1125000,    0.1125000 ]
  distance:    0.0349507
  band:
  - # 1
    frequency:   32.8078594208
  - # 2
    frequency:   36.5689827385
  - # 3
    frequency:   90.9806568320
  - # 4
    frequency:  500.0422298866
  - # 5
    frequency:  500.2064922323
  - # 6
    frequency:  501.7196621587

- q-position: [    0.0458333,    0.1145833,    0.1145833 ]
  distance:    0.0355980
  band:
  - # 1
    frequency:   33.4033043950
  - # 2
    frequency:   37.2439574158
  - # 3
    frequency:   92.6313325058
  - # 4
    frequency:  499.9101058602
  - # 5
    frequency:  500.0781420090
  - # 6
    frequency:  501.6400373139

- q-position: [    0.0466667,    0.1166667,    0.1166667 ]
  distance:    0.0362452
  band:
  - # 1
    frequency:   33.9987007181
  - # 2
    frequency:   37.9195023292
  - # 3
    frequency:   94.2803833245
  - # 4
    frequency:  499.7747530572
  - # 5
    frequency:  499.9483070582
  - # 6
    frequency:  501.5587869202

- q-position: [    0.0475000,    0.1187500,    0.1187500 ]
  distance:    0.0368924
  band:
  - # 1
    frequency:   34.5940272516
  - # 2
    frequency:   38.5956202528
  - # 3
    frequency:   95.9277750820
  - # 4
    frequency:  499.6361796536
  - # 5
    frequency:  499.8169843586
  - # 6
    frequency:  501.4759027267

- q-position: [    0.0483333,    0.1208333,    0.1208333 ]
  distance:    0.0375397
  band:
  - # 1
    frequency:   35.1892631046
  - # 2
    frequency:   39.2723146197
  - # 3
    frequency:   97.5734737885
  - # 4
    frequency:  499.4944119215
  - # 5
    frequency:  499.6841527334
  - # 6
    frequency:  501.3913766831

- q-position: [    0.0491667,    0.1229167,    0.1229167 ]
  distance:    0.0381869
  band:
  - # 1
    frequency:   35.7843875856
  - # 2
    frequency:   39.9495894712
  - # 3
    frequency:   99.2174456505
  - # 4
    frequency:  499.3494886672
  - # 5
    frequency:  499.5497784104
  - # 6
    frequency:  501.3052009518

- q-position: [    0.0500000,    0.1250000,    0.1250000 ]
  distance:    0.0388341
  band:
  - # 1
    frequency:   36.3793801590
  - # 2
    frequency:   40.6274494098
  - # 3
    frequency:  100.8596570546
  - # 4
    frequency:  499.2014555128
  - # 5
    frequency:  499.4138207374
  - # 6
    frequency:  501.2173679191

- q-position: [    0.0508333,    0.1270833,    0.1270833 ]
  distance:    0.0394814
  band:
  - # 1
    frequency:   36.9742204059
  - # 2
    frequency:   41.3058995564
  - # 3
    frequency:  102.5000745514
  - # 4
    frequency:  499.0503600377
  - # 5
    frequency:  499.2762370398
  - # 6
    frequency:  501.1278702071

- q-position: [    0.0516667,    0.1291667,    0.1291667 ]
  distance:    0.0401286
  band:
  - # 1
    frequency:   37.5688879899
  - # 2
    frequency:   41.9849455108
  - # 3
    frequency:  104.1386648412
  - # 4
    frequency:  498.8962482331
  - # 5
    frequency:  499.1369861633
  - # 6
    frequency:  501.0367006855

- q-position: [    0.0525000,    0.1312500,    0.1312500 ]
  distance:    0.0407758
  band:
  - # 1
    frequency:   38.1633626261
  - # 2
    frequency:   42.6645933144
  - # 3
    frequency:  105.7753947621
  - # 4
    frequency:  498.7391622756
  - # 5
    frequency:  498.9960306985
  - # 6
    frequency:  500.9438524830

- q-position: [    0.0533333,    0.1333333,    0.1333333 ]
  distance:    0.0414231
  band:
  - # 1
    frequency:   38.7576240537
  - # 2
    frequency:   43.3448494163
  - # 3
    frequency:  107.4102312780
  - # 4
    frequency:  498.5791393798
  - # 5
    frequency:  498.8533381264
  - # 6
    frequency:  500.8493190000

- q-position: [    0.0541667,    0.1354167,    0.1354167 ]
  distance:    0.0420703
  band:
  - # 1
    frequency:   39.3516520114
  - # 2
    frequency:   44.0257206411
  - # 3
    frequency:  109.0431414683
  - # 4
    frequency:  498.4162114154
  - # 5
    frequency:  498.7088811993
  - # 6
    frequency:  500.7530939196

- q-position: [    0.0550000,    0.1375000,    0.1375000 ]
  distance:    0.0427175
  band:
  - # 1
    frequency:   39.9454262160
  - # 2
    frequency:   44.7072141589
  - # 3
    frequency:  110.6740925183
  - # 4
    frequency:  498.2504050074
  - # 5
    frequency:  498.5626378383
  - # 6
    frequency:  500.6551712202

- q-position: [    0.0558333,    0.1395833,    0.1395833 ]
  distance:    0.0433648
  band:
  - # 1
    frequency:   40.5389263431
  - # 2
    frequency:   45.3893374567
  - # 3
    frequency:  112.3030517110
  - # 4
    frequency:  498.0817419036
  - # 5
    frequency:  498.4145907644
  - # 6
    frequency:  500.5555451872

- q-position: [    0.0566667,    0.1416667,    0.1416667 ]
  distance:    0.0440120
  band:
  - # 1
    frequency:   41.1321320104
  - # 2
    frequency:   46.0720983123
  - # 3
    frequency:  113.9299864189
  - # 4
    frequency:  497.9102394625
  - # 5
    frequency:  498.2647270083
  - # 6
    frequency:  500.4542104249

- q-position: [    0.0575000,    0.1437500,    0.1437500 ]
  distance:    0.0446593
  band:
  - # 1
    frequency:   41.7250227627
  - # 2
    frequency:   46.7555047686
  - # 3
    frequency:  115.5548640967
  - # 4
    frequency:  497.7359111724
  - # 5
    frequency:  498.1130373894
  - # 6
    frequency:  500.3511618689

- q-position: [    0.0583333,    0.1458333,    0.1458333 ]
  distance:    0.0453065
  band:
  - # 1
    frequency:   42.3175780590
  - # 2
    frequency:   47.4395651097
  - # 3
    frequency:  117.1776522755
  - # 4
    frequency:  497.5587671494
  - # 5
    frequency:  497.9595160163
  - # 6
    frequency:  500.2463947978

- q-position: [    0.0591667,    0.1479167,    0.1479167 ]
  distance:    0.0459537
  band:
  - # 1
    frequency:   42.9097772612
  - # 2
    frequency:   48.1242878378
  - # 3
    frequency:  118.7983185560
  - # 4
    frequency:  497.3788145907
  - # 5
    frequency:  497.8041598314
  - # 6
    frequency:  500.1399048451

- q-position: [    0.0600000,    0.1500000,    0.1500000 ]
  distance:    0.0466010
  band:
  - # 1
    frequency:   43.5015996247
  - # 2
    frequency:   48.8096816517
  - # 3
    frequency:  120.4168306035
  - # 4
    frequency:  497.1960581728
  - # 5
    frequency:  497.6469682114
  - # 6
    frequency:  500.0316880114

- q-position: [    0.0608333,    0.1520833,    0.1520833 ]
  distance:    0.0472482
  band:
  - # 1
    frequency:   44.0930242895
  - # 2
    frequency:   49.4957554256
  - # 3
    frequency:  122.0331561428
  - # 4
    frequency:  497.0105003937
  - # 5
    frequency:  497.4879426232
  - # 6
    frequency:  499.9217406759

- q-position: [    0.0616667,    0.1541667,    0.1541667 ]
  distance:    0.0478954
  band:
  - # 1
    frequency:   44.6840302737
  - # 2
    frequency:   50.1825181887
  - # 3
    frequency:  123.6472629538
  - # 4
    frequency:  496.8221418640
  - # 5
    frequency:  497.3270863317
  - # 6
    frequency:  499.8100596083

- q-position: [    0.0625000,    0.1562500,    0.1562500 ]
  distance:    0.0485427
  band:
  - # 1
    frequency:   45.2745964676
  - # 2
    frequency:   50.8699791064
  - # 3
    frequency:  125.2591188669
  - # 4
    frequency:  496.6309815511
  - # 5
    frequency:  497.1644041541
  - # 6
    frequency:  499.6966419803

- q-position: [    0.0633333,    0.1583333,    0.1583333 ]
  distance:    0.0491899
  band:
  - # 1
    frequency:   45.8647016283
  - # 2
    frequency:   51.5581474609
  - # 3
    frequency:  126.8686917594
  - # 4
    frequency:  496.4370169843
  - # 5
    frequency:  496.9999022540
  - # 6
    frequency:  499.5814853773

- q-position: [    0.0641667,    0.1604167,    0.1604167 ]
  distance:    0.0498371
  band:
  - # 1
    frequency:   46.4543243766
  - # 2
    frequency:   52.2470326336
  - # 3
    frequency:  128.4759495520
  - # 4
    frequency:  496.2402444252
  - # 5
    frequency:  496.8335879698
  - # 6
    frequency:  499.4645878093

- q-position: [    0.0650000,    0.1625000,    0.1625000 ]
  distance:    0.0504844
  band:
  - # 1
    frequency:   47.0434431936
  - # 2
    frequency:   52.9366440874
  - # 3
    frequency:  130.0808602054
  - # 4
    frequency:  496.0406590105
  - # 5
    frequency:  496.6654696713
  - # 6
    frequency:  499.3459477223

- q-position: [    0.0658333,    0.1645833,    0.1645833 ]
  distance:    0.0511316
  band:
  - # 1
    frequency:   47.6320364186
  - # 2
    frequency:   53.6269913497
  - # 3
    frequency:  131.6833917174
  - # 4
    frequency:  495.8382548707
  - # 5
    frequency:  496.4955566407
  - # 6
    frequency:  499.2255640091

- q-position: [    0.0666667,    0.1666667,    0.1666667 ]
  distance:    0.0517788
  band:
  - # 1
    frequency:   48.2200822475
  - # 2
    frequency:   54.3180839956
  - # 3
    frequency:  133.2835121198
  - # 4
    frequency:  495.6330252291
  - # 5
    frequency:  496.3238589729
  - # 6
    frequency:  499.1034360199

- q-position: [    0.0675000,    0.1687500,    0.1687500 ]
  distance:    0.0524261
  band:
  - # 1
    frequency:   48.8075587321
  - # 2
    frequency:   55.0099316325
  - # 3
    frequency:  134.8811894765
  - # 4
    frequency:  495.4249624854
  - # 5
    frequency:  496.1503874922
  - # 6
    frequency:  498.9795635728

- q-position: [    0.0683333,    0.1708333,    0.1708333 ]
  distance:    0.0530733
  band:
  - # 1
    frequency:   49.3944437797
  - # 2
    frequency:   55.7025438839
  - # 3
    frequency:  136.4763918803
  - # 4
    frequency:  495.2140582852
  - # 5
    frequency:  495.9751536836
  - # 6
    frequency:  498.8539469637

- q-position: [    0.0691667,    0.1729167,    0.1729167 ]
  distance:    0.0537206
  band:
  - # 1
    frequency:   49.9807151537
  - # 2
    frequency:   56.3959303745
  - # 3
    frequency:  138.0690874515
  - # 4
    frequency:  495.0003035785
  - # 5
    frequency:  495.7981696339
  - # 6
    frequency:  498.7265869763

- q-position: [    0.0700000,    0.1750000,    0.1750000 ]
  distance:    0.0543678
  band:
  - # 1
    frequency:   50.5663504738
  - # 2
    frequency:   57.0901007150
  - # 3
    frequency:  139.6592443355
  - # 4
    frequency:  494.7836886701
  - # 5
    frequency:  495.6194479830
  - # 6
    frequency:  498.5974848914

- q-position: [    0.0708333,    0.1770833,    0.1770833 ]
  distance:    0.0550150
  band:
  - # 1
    frequency:   51.1513272172
  - # 2
    frequency:   57.7850644881
  - # 3
    frequency:  141.2468307008
  - # 4
    frequency:  494.5642032618
  - # 5
    frequency:  495.4390018829
  - # 6
    frequency:  498.4666424959

- q-position: [    0.0716667,    0.1791667,    0.1791667 ]
  distance:    0.0556623
  band:
  - # 1
    frequency:   51.7356227207
  - # 2
    frequency:   58.4808312342
  - # 3
    frequency:  142.8318147376
  - # 4
    frequency:  494.3418364884
  - # 5
    frequency:  495.2568449631
  - # 6
    frequency:  498.3340620919

- q-position: [    0.0725000,    0.1812500,    0.1812500 ]
  distance:    0.0563095
  band:
  - # 1
    frequency:   52.3192141816
  - # 2
    frequency:   59.1774104377
  - # 3
    frequency:  144.4141646561
  - # 4
    frequency:  494.1165769496
  - # 5
    frequency:  495.0729913012
  - # 6
    frequency:  498.1997465046

- q-position: [    0.0733333,    0.1833333,    0.1833333 ]
  distance:    0.0569567
  band:
  - # 1
    frequency:   52.9020786603
  - # 2
    frequency:   59.8748115132
  - # 3
    frequency:  145.9938486848
  - # 4
    frequency:  493.8884127366
  - # 5
    frequency:  494.8874553981
  - # 6
    frequency:  498.0636990904
