16   
2    

1    
  0.0049988799210436   0.0028861046679332   0.0081658801963243
  -0.0672679350   -0.0388371604   -0.1107254922
   0.0044609804   -0.0047713324   -0.0074256772
  -0.0019016049    0.0062489886   -0.0074256772
  -0.0002118021   -0.0001222840   -0.0041472736
   0.0044712296    0.0025814656    0.0034399708
  -0.0065737988    0.0035519702   -0.0036389453
  -0.0002108029   -0.0074690618   -0.0036389453
   0.0006404337    0.0003697545   -0.0027871146
  -0.0012227588   -0.0007059601    0.0048840155
   0.0056148717    0.0033508839    0.0127830255
   0.0057093864    0.0031871796    0.0127830255
   0.0522688809    0.0301774524    0.0317423490
   0.0013617216    0.0007861903    0.0027741985
  -0.0012249164   -0.0007095905    0.0017227089
  -0.0012269816   -0.0007060135    0.0017227089
   0.0057123882    0.0032980488    0.0678351451

1    
 -0.0049988799210436  -0.0028861046679332  -0.0081658801963243
   0.0650014846    0.0375286247    0.1049543041
  -0.0044502498    0.0047815091   -0.0001442424
   0.0019157834   -0.0062447839   -0.0001442424
   0.0002207467    0.0001274482   -0.0034367991
  -0.0044188314   -0.0025512135   -0.0110766673
   0.0065791042   -0.0035459974   -0.0039846282
   0.0002186283    0.0074706701   -0.0039846282
  -0.0005980001   -0.0003452555   -0.0048089307
   0.0013069943    0.0007545935    0.0027025412
  -0.0054590937   -0.0030204209   -0.0053193000
  -0.0053453081   -0.0032175034   -0.0053193000
  -0.0505183178   -0.0291667644   -0.0237892505
  -0.0012560299   -0.0007251692    0.0048010728
   0.0013008235    0.0007486667    0.0058479985
   0.0012987761    0.0007522129    0.0058479985
  -0.0053786054   -0.0031053393   -0.0622190267
