phonopy:
  version: 1.12.0
  calculator: pwmat
  configuration:
    cell_filename: "atom.config"
    create_displacements: ".true."
    dim: "2 2 2"

supercell_matrix:
- [   2,   0,   0 ]
- [   0,   2,   0 ]
- [   0,   0,   2 ]

space_group:
  type: "R-3m"
  number: 166
  Hall_symbol: "-R 3 2""

primitive_cell:
  lattice:
  - [     3.862196695000000,     0.000000000000000,     0.000000000000000 ] # a
  - [     1.931098348000000,     3.344760453000000,    -0.000000000000000 ] # b
  - [     1.931098348000000,     1.114920151000000,     3.154530216000000 ] # c
  points:
  - symbol: Si # 1
    coordinates: [  0.999999999000000,  0.999999999000000,  0.000000002000000 ]
    mass: 28.085500
  - symbol: Si # 2
    coordinates: [  0.250000098000000,  0.250000098000000,  0.249999707000000 ]
    mass: 28.085500
  reciprocal_lattice: # without 2pi
  - [     0.258920008215687,    -0.149487536448536,    -0.105668137755964 ] # a*
  - [     0.000000000000000,     0.298975072819662,    -0.105668137728605 ] # b*
  - [     0.000000000000000,     0.000000000000000,     0.317004413185814 ] # c*

unit_cell:
  lattice:
  - [     3.862196695000000,     0.000000000000000,     0.000000000000000 ] # a
  - [     1.931098348000000,     3.344760453000000,    -0.000000000000000 ] # b
  - [     1.931098348000000,     1.114920151000000,     3.154530216000000 ] # c
  points:
  - symbol: Si # 1
    coordinates: [  0.999999999000000,  0.999999999000000,  0.000000002000000 ]
    mass: 28.085500
    reduced_to: 1
  - symbol: Si # 2
    coordinates: [  0.250000098000000,  0.250000098000000,  0.249999707000000 ]
    mass: 28.085500
    reduced_to: 2

supercell:
  lattice:
  - [     7.724393390000000,     0.000000000000000,     0.000000000000000 ] # a
  - [     3.862196696000000,     6.689520906000000,    -0.000000000000000 ] # b
  - [     3.862196696000000,     2.229840302000000,     6.309060432000000 ] # c
  points:
  - symbol: Si # 1
    coordinates: [  0.499999999500000,  0.499999999500000,  0.000000001000000 ]
    mass: 28.085500
    reduced_to: 1
  - symbol: Si # 2
    coordinates: [  0.999999999500000,  0.499999999500000,  0.000000001000000 ]
    mass: 28.085500
    reduced_to: 1
  - symbol: Si # 3
    coordinates: [  0.499999999500000,  0.999999999500000,  0.000000001000000 ]
    mass: 28.085500
    reduced_to: 1
  - symbol: Si # 4
    coordinates: [  0.999999999500000,  0.999999999500000,  0.000000001000000 ]
    mass: 28.085500
    reduced_to: 1
  - symbol: Si # 5
    coordinates: [  0.499999999500000,  0.499999999500000,  0.500000001000000 ]
    mass: 28.085500
    reduced_to: 1
  - symbol: Si # 6
    coordinates: [  0.999999999500000,  0.499999999500000,  0.500000001000000 ]
    mass: 28.085500
    reduced_to: 1
  - symbol: Si # 7
    coordinates: [  0.499999999500000,  0.999999999500000,  0.500000001000000 ]
    mass: 28.085500
    reduced_to: 1
  - symbol: Si # 8
    coordinates: [  0.999999999500000,  0.999999999500000,  0.500000001000000 ]
    mass: 28.085500
    reduced_to: 1
  - symbol: Si # 9
    coordinates: [  0.125000049000000,  0.125000049000000,  0.124999853500000 ]
    mass: 28.085500
    reduced_to: 9
  - symbol: Si # 10
    coordinates: [  0.625000049000000,  0.125000049000000,  0.124999853500000 ]
    mass: 28.085500
    reduced_to: 9
  - symbol: Si # 11
    coordinates: [  0.125000049000000,  0.625000049000000,  0.124999853500000 ]
    mass: 28.085500
    reduced_to: 9
  - symbol: Si # 12
    coordinates: [  0.625000049000000,  0.625000049000000,  0.124999853500000 ]
    mass: 28.085500
    reduced_to: 9
  - symbol: Si # 13
    coordinates: [  0.125000049000000,  0.125000049000000,  0.624999853500000 ]
    mass: 28.085500
    reduced_to: 9
  - symbol: Si # 14
    coordinates: [  0.625000049000000,  0.125000049000000,  0.624999853500000 ]
    mass: 28.085500
    reduced_to: 9
  - symbol: Si # 15
    coordinates: [  0.125000049000000,  0.625000049000000,  0.624999853500000 ]
    mass: 28.085500
    reduced_to: 9
  - symbol: Si # 16
    coordinates: [  0.625000049000000,  0.625000049000000,  0.624999853500000 ]
    mass: 28.085500
    reduced_to: 9
