# Sigma = 1.000000
       -5.8623787615        0.0000000000
       -5.7623787615        0.0000000000
       -5.6623787615        0.0000000000
       -5.5623787615        0.0000000000
       -5.4623787615        0.0000000000
       -5.3623787615        0.0000000000
       -5.2623787615        0.0000000000
       -5.1623787615        0.0000000000
       -5.0623787615        0.0000000000
       -4.9623787615        0.0000000000
       -4.8623787615        0.0000000000
       -4.7623787615        0.0000000000
       -4.6623787615        0.0000000000
       -4.5623787615        0.0000000000
       -4.4623787615        0.0000000000
       -4.3623787615        0.0000000000
       -4.2623787615        0.0000000000
       -4.1623787615        0.0000000000
       -4.0623787615        0.0000000000
       -3.9623787615        0.0000000000
       -3.8623787615        0.0000000000
       -3.7623787615        0.0000000000
       -3.6623787615        0.0000000000
       -3.5623787615        0.0000000000
       -3.4623787615        0.0000000000
       -3.3623787615        0.0000000000
       -3.2623787615        0.0000000000
       -3.1623787615        0.0000000000
       -3.0623787615        0.0000000000
       -2.9623787615        0.0000000000
       -2.8623787615        0.0000000000
       -2.7623787615        0.0000000000
       -2.6623787615        0.0000000000
       -2.5623787615        0.0000000000
       -2.4623787615        0.0000000000
       -2.3623787615        0.0000000000
       -2.2623787615        0.0000000000
       -2.1623787615        0.0000000000
       -2.0623787615        0.0000000000
       -1.9623787615        0.0000000000
       -1.8623787615        0.0000000000
       -1.7623787615        0.0000000000
       -1.6623787615        0.0000000000
       -1.5623787615        0.0000000000
       -1.4623787615        0.0000000000
       -1.3623787615        0.0000000000
       -1.2623787615        0.0000000000
       -1.1623787615        0.0000000000
       -1.0623787615        0.0000000000
       -0.9623787615        0.0000000000
       -0.8623787615        0.0000000000
       -0.7623787615        0.0000000000
       -0.6623787615        0.0000000000
       -0.5623787615        0.0000000001
       -0.4623787615        0.0000000001
       -0.3623787615        0.0000000002
       -0.2623787615        0.0000000002
       -0.1623787615        0.0000000004
       -0.0623787615        0.0000000006
        0.0376212385        0.0000000009
        0.1376212385        0.0000000014
        0.2376212385        0.0000000020
        0.3376212385        0.0000000030
        0.4376212385        0.0000000044
        0.5376212385        0.0000000063
        0.6376212385        0.0000000091
        0.7376212385        0.0000000129
        0.8376212385        0.0000000182
        0.9376212385        0.0000000253
        1.0376212385        0.0000000349
        1.1376212385        0.0000000476
        1.2376212385        0.0000000644
        1.3376212385        0.0000000862
        1.4376212385        0.0000001143
        1.5376212385        0.0000001500
        1.6376212385        0.0000001949
        1.7376212385        0.0000002508
        1.8376212385        0.0000003195
        1.9376212385        0.0000004032
        2.0376212385        0.0000005037
        2.1376212385        0.0000006233
        2.2376212385        0.0000007639
        2.3376212385        0.0000009272
        2.4376212385        0.0000011148
        2.5376212385        0.0000013278
        2.6376212385        0.0000015670
        2.7376212385        0.0000018325
        2.8376212385        0.0000021241
        2.9376212385        0.0000024410
        3.0376212385        0.0000027818
        3.1376212385        0.0000031450
        3.2376212385        0.0000035290
        3.3376212385        0.0000039320
        3.4376212385        0.0000043529
        3.5376212385        0.0000047911
        3.6376212385        0.0000052473
        3.7376212385        0.0000057234
        3.8376212385        0.0000062229
        3.9376212385        0.0000067513
        4.0376212385        0.0000073163
        4.1376212385        0.0000079274
        4.2376212385        0.0000085961
        4.3376212385        0.0000093352
        4.4376212385        0.0000101591
        4.5376212385        0.0000110822
        4.6376212385        0.0000121188
        4.7376212385        0.0000132823
        4.8376212385        0.0000145839
        4.9376212385        0.0000160319
        5.0376212385        0.0000176310
        5.1376212385        0.0000193817
        5.2376212385        0.0000212796
        5.3376212385        0.0000233150
        5.4376212385        0.0000254734
        5.5376212385        0.0000277353
        5.6376212385        0.0000300769
        5.7376212385        0.0000324711
        5.8376212385        0.0000348878
        5.9376212385        0.0000372958
        6.0376212385        0.0000396635
        6.1376212385        0.0000419604
        6.2376212385        0.0000441578
        6.3376212385        0.0000462305
        6.4376212385        0.0000481570
        6.5376212385        0.0000499207
        6.6376212385        0.0000515102
        6.7376212385        0.0000529193
        6.8376212385        0.0000541474
        6.9376212385        0.0000551996
        7.0376212385        0.0000560857
        7.1376212385        0.0000568207
        7.2376212385        0.0000574238
        7.3376212385        0.0000579186
        7.4376212385        0.0000583321
        7.5376212385        0.0000586945
        7.6376212385        0.0000590388
        7.7376212385        0.0000594005
        7.8376212385        0.0000598167
        7.9376212385        0.0000603260
        8.0376212385        0.0000609679
        8.1376212385        0.0000617817
        8.2376212385        0.0000628060
        8.3376212385        0.0000640779
        8.4376212385        0.0000656316
        8.5376212385        0.0000674975
        8.6376212385        0.0000697009
        8.7376212385        0.0000722611
        8.8376212385        0.0000751897
        8.9376212385        0.0000784901
        9.0376212385        0.0000821563
        9.1376212385        0.0000861724
        9.2376212385        0.0000905122
        9.3376212385        0.0000951393
        9.4376212385        0.0001000077
        9.5376212385        0.0001050626
        9.6376212385        0.0001102416
        9.7376212385        0.0001154766
        9.8376212385        0.0001206958
        9.9376212385        0.0001258260
       10.0376212385        0.0001307948
       10.1376212385        0.0001355336
       10.2376212385        0.0001399793
       10.3376212385        0.0001440770
       10.4376212385        0.0001477816
       10.5376212385        0.0001510593
       10.6376212385        0.0001538885
       10.7376212385        0.0001562600
       10.8376212385        0.0001581774
       10.9376212385        0.0001596564
       11.0376212385        0.0001607235
       11.1376212385        0.0001614156
       11.2376212385        0.0001617778
       11.3376212385        0.0001618623
       11.4376212385        0.0001617269
       11.5376212385        0.0001614335
       11.6376212385        0.0001610472
       11.7376212385        0.0001606347
       11.8376212385        0.0001602639
       11.9376212385        0.0001600031
       12.0376212385        0.0001599200
       12.1376212385        0.0001600819
       12.2376212385        0.0001605544
       12.3376212385        0.0001614012
       12.4376212385        0.0001626827
       12.5376212385        0.0001644555
       12.6376212385        0.0001667707
       12.7376212385        0.0001696725
       12.8376212385        0.0001731968
       12.9376212385        0.0001773691
       13.0376212385        0.0001822030
       13.1376212385        0.0001876989
       13.2376212385        0.0001938421
       13.3376212385        0.0002006026
       13.4376212385        0.0002079337
       13.5376212385        0.0002157730
       13.6376212385        0.0002240423
       13.7376212385        0.0002326496
       13.8376212385        0.0002414902
       13.9376212385        0.0002504501
       14.0376212385        0.0002594085
       14.1376212385        0.0002682413
       14.2376212385        0.0002768250
       14.3376212385        0.0002850403
       14.4376212385        0.0002927761
       14.5376212385        0.0002999331
       14.6376212385        0.0003064266
       14.7376212385        0.0003121897
       14.8376212385        0.0003171745
       14.9376212385        0.0003213543
       15.0376212385        0.0003247232
       15.1376212385        0.0003272960
       15.2376212385        0.0003291074
       15.3376212385        0.0003302097
       15.4376212385        0.0003306711
       15.5376212385        0.0003305725
       15.6376212385        0.0003300051
       15.7376212385        0.0003290671
       15.8376212385        0.0003278611
       15.9376212385        0.0003264914
       16.0376212385        0.0003250615
       16.1376212385        0.0003236723
       16.2376212385        0.0003224205
       16.3376212385        0.0003213968
       16.4376212385        0.0003206852
       16.5376212385        0.0003203622
       16.6376212385        0.0003204957
       16.7376212385        0.0003211449
       16.8376212385        0.0003223597
       16.9376212385        0.0003241805
       17.0376212385        0.0003266377
       17.1376212385        0.0003297518
       17.2376212385        0.0003335335
       17.3376212385        0.0003379835
       17.4376212385        0.0003430932
       17.5376212385        0.0003488446
       17.6376212385        0.0003552112
       17.7376212385        0.0003621581
       17.8376212385        0.0003696428
       17.9376212385        0.0003776154
       18.0376212385        0.0003860185
       18.1376212385        0.0003947879
       18.2376212385        0.0004038525
       18.3376212385        0.0004131341
       18.4376212385        0.0004225478
       18.5376212385        0.0004320021
       18.6376212385        0.0004413999
       18.7376212385        0.0004506395
       18.8376212385        0.0004596159
       18.9376212385        0.0004682237
       19.0376212385        0.0004763595
       19.1376212385        0.0004839255
       19.2376212385        0.0004908329
       19.3376212385        0.0004970060
       19.4376212385        0.0005023859
       19.5376212385        0.0005069337
       19.6376212385        0.0005106337
       19.7376212385        0.0005134952
       19.8376212385        0.0005155534
       19.9376212385        0.0005168696
       20.0376212385        0.0005175298
       20.1376212385        0.0005176423
       20.2376212385        0.0005173341
       20.3376212385        0.0005167472
       20.4376212385        0.0005160329
       20.5376212385        0.0005153470
       20.6376212385        0.0005148438
       20.7376212385        0.0005146711
       20.8376212385        0.0005149644
       20.9376212385        0.0005158430
       21.0376212385        0.0005174058
       21.1376212385        0.0005197282
       21.2376212385        0.0005228610
       21.3376212385        0.0005268289
       21.4376212385        0.0005316314
       21.5376212385        0.0005372442
       21.6376212385        0.0005436217
       21.7376212385        0.0005507006
       21.8376212385        0.0005584036
       21.9376212385        0.0005666445
       22.0376212385        0.0005753322
       22.1376212385        0.0005843755
       22.2376212385        0.0005936869
       22.3376212385        0.0006031861
       22.4376212385        0.0006128021
       22.5376212385        0.0006224750
       22.6376212385        0.0006321558
       22.7376212385        0.0006418059
       22.8376212385        0.0006513954
       22.9376212385        0.0006609011
       23.0376212385        0.0006703029
       23.1376212385        0.0006795822
       23.2376212385        0.0006887186
       23.3376212385        0.0006976879
       23.4376212385        0.0007064614
       23.5376212385        0.0007150053
       23.6376212385        0.0007232817
       23.7376212385        0.0007312500
       23.8376212385        0.0007388700
       23.9376212385        0.0007461046
       24.0376212385        0.0007529235
       24.1376212385        0.0007593063
       24.2376212385        0.0007652455
       24.3376212385        0.0007707487
       24.4376212385        0.0007758394
       24.5376212385        0.0007805565
       24.6376212385        0.0007849533
       24.7376212385        0.0007890942
       24.8376212385        0.0007930510
       24.9376212385        0.0007968982
       25.0376212385        0.0008007079
       25.1376212385        0.0008045448
       25.2376212385        0.0008084618
       25.3376212385        0.0008124967
       25.4376212385        0.0008166698
       25.5376212385        0.0008209839
       25.6376212385        0.0008254250
       25.7376212385        0.0008299653
       25.8376212385        0.0008345680
       25.9376212385        0.0008391922
       26.0376212385        0.0008437995
       26.1376212385        0.0008483599
       26.2376212385        0.0008528576
       26.3376212385        0.0008572956
       26.4376212385        0.0008616987
       26.5376212385        0.0008661150
       26.6376212385        0.0008706143
       26.7376212385        0.0008752858
       26.8376212385        0.0008802324
       26.9376212385        0.0008855647
       27.0376212385        0.0008913928
       27.1376212385        0.0008978187
       27.2376212385        0.0009049278
       27.3376212385        0.0009127816
       27.4376212385        0.0009214124
       27.5376212385        0.0009308185
       27.6376212385        0.0009409627
       27.7376212385        0.0009517722
       27.8376212385        0.0009631414
       27.9376212385        0.0009749362
       28.0376212385        0.0009870003
       28.1376212385        0.0009991631
       28.2376212385        0.0010112471
       28.3376212385        0.0010230774
       28.4376212385        0.0010344890
       28.5376212385        0.0010453349
       28.6376212385        0.0010554920
       28.7376212385        0.0010648656
       28.8376212385        0.0010733929
       28.9376212385        0.0010810442
       29.0376212385        0.0010878221
       29.1376212385        0.0010937598
       29.2376212385        0.0010989173
       29.3376212385        0.0011033767
       29.4376212385        0.0011072370
       29.5376212385        0.0011106075
       29.6376212385        0.0011136019
       29.7376212385        0.0011163323
       29.8376212385        0.0011189035
       29.9376212385        0.0011214087
       30.0376212385        0.0011239257
       30.1376212385        0.0011265148
       30.2376212385        0.0011292181
       30.3376212385        0.0011320601
       30.4376212385        0.0011350499
       30.5376212385        0.0011381842
       30.6376212385        0.0011414523
       30.7376212385        0.0011448403
       30.8376212385        0.0011483369
       30.9376212385        0.0011519382
       31.0376212385        0.0011556524
       31.1376212385        0.0011595031
       31.2376212385        0.0011635313
       31.3376212385        0.0011677962
       31.4376212385        0.0011723737
       31.5376212385        0.0011773533
       31.6376212385        0.0011828338
       31.7376212385        0.0011889177
       31.8376212385        0.0011957039
       31.9376212385        0.0012032820
       32.0376212385        0.0012117250
       32.1376212385        0.0012210837
       32.2376212385        0.0012313829
       32.3376212385        0.0012426186
       32.4376212385        0.0012547572
       32.5376212385        0.0012677374
       32.6376212385        0.0012814733
       32.7376212385        0.0012958595
       32.8376212385        0.0013107769
       32.9376212385        0.0013261000
       33.0376212385        0.0013417029
       33.1376212385        0.0013574657
       33.2376212385        0.0013732792
       33.3376212385        0.0013890486
       33.4376212385        0.0014046946
       33.5376212385        0.0014201529
       33.6376212385        0.0014353728
       33.7376212385        0.0014503128
       33.8376212385        0.0014649368
       33.9376212385        0.0014792087
       34.0376212385        0.0014930879
       34.1376212385        0.0015065254
       34.2376212385        0.0015194609
       34.3376212385        0.0015318222
       34.4376212385        0.0015435257
       34.5376212385        0.0015544797
       34.6376212385        0.0015645887
       34.7376212385        0.0015737594
       34.8376212385        0.0015819078
       34.9376212385        0.0015889664
       35.0376212385        0.0015948910
       35.1376212385        0.0015996668
       35.2376212385        0.0016033129
       35.3376212385        0.0016058846
       35.4376212385        0.0016074740
       35.5376212385        0.0016082079
       35.6376212385        0.0016082437
       35.7376212385        0.0016077632
       35.8376212385        0.0016069649
       35.9376212385        0.0016060559
       36.0376212385        0.0016052426
       36.1376212385        0.0016047226
       36.2376212385        0.0016046769
       36.3376212385        0.0016052641
       36.4376212385        0.0016066158
       36.5376212385        0.0016088347
       36.6376212385        0.0016119948
       36.7376212385        0.0016161430
       36.8376212385        0.0016213030
       36.9376212385        0.0016274807
       37.0376212385        0.0016346696
       37.1376212385        0.0016428572
       37.2376212385        0.0016520304
       37.3376212385        0.0016621799
       37.4376212385        0.0016733036
       37.5376212385        0.0016854078
       37.6376212385        0.0016985056
       37.7376212385        0.0017126145
       37.8376212385        0.0017277515
       37.9376212385        0.0017439258
       38.0376212385        0.0017611322
       38.1376212385        0.0017793425
       38.2376212385        0.0017984986
       38.3376212385        0.0018185053
       38.4376212385        0.0018392271
       38.5376212385        0.0018604849
       38.6376212385        0.0018820579
       38.7376212385        0.0019036878
       38.8376212385        0.0019250855
       38.9376212385        0.0019459421
       39.0376212385        0.0019659411
       39.1376212385        0.0019847733
       39.2376212385        0.0020021512
       39.3376212385        0.0020178241
       39.4376212385        0.0020315918
       39.5376212385        0.0020433150
       39.6376212385        0.0020529239
       39.7376212385        0.0020604215
       39.8376212385        0.0020658844
       39.9376212385        0.0020694574
       40.0376212385        0.0020713458
       40.1376212385        0.0020718037
       40.2376212385        0.0020711192
       40.3376212385        0.0020695993
       40.4376212385        0.0020675532
       40.5376212385        0.0020652776
       40.6376212385        0.0020630426
       40.7376212385        0.0020610820
       40.8376212385        0.0020595853
       40.9376212385        0.0020586948
       41.0376212385        0.0020585062
       41.1376212385        0.0020590722
       41.2376212385        0.0020604101
       41.3376212385        0.0020625102
       41.4376212385        0.0020653469
       41.5376212385        0.0020688889
       41.6376212385        0.0020731091
       41.7376212385        0.0020779931
       41.8376212385        0.0020835453
       41.9376212385        0.0020897924
       42.0376212385        0.0020967842
       42.1376212385        0.0021045918
       42.2376212385        0.0021133031
       42.3376212385        0.0021230170
       42.4376212385        0.0021338356
       42.5376212385        0.0021458562
       42.6376212385        0.0021591631
       42.7376212385        0.0021738200
       42.8376212385        0.0021898629
       42.9376212385        0.0022072949
       43.0376212385        0.0022260824
       43.1376212385        0.0022461529
       43.2376212385        0.0022673942
       43.3376212385        0.0022896561
       43.4376212385        0.0023127530
       43.5376212385        0.0023364684
       43.6376212385        0.0023605606
       43.7376212385        0.0023847698
       43.8376212385        0.0024088257
       43.9376212385        0.0024324563
       44.0376212385        0.0024553972
       44.1376212385        0.0024774001
       44.2376212385        0.0024982421
       44.3376212385        0.0025177330
       44.4376212385        0.0025357222
       44.5376212385        0.0025521035
       44.6376212385        0.0025668183
       44.7376212385        0.0025798557
       44.8376212385        0.0025912511
       44.9376212385        0.0026010826
       45.0376212385        0.0026094643
       45.1376212385        0.0026165397
       45.2376212385        0.0026224722
       45.3376212385        0.0026274367
       45.4376212385        0.0026316100
       45.5376212385        0.0026351634
       45.6376212385        0.0026382552
       45.7376212385        0.0026410259
       45.8376212385        0.0026435953
       45.9376212385        0.0026460612
       46.0376212385        0.0026485010
       46.1376212385        0.0026509745
       46.2376212385        0.0026535282
       46.3376212385        0.0026562011
       46.4376212385        0.0026590308
       46.5376212385        0.0026620589
       46.6376212385        0.0026653371
       46.7376212385        0.0026689314
       46.8376212385        0.0026729255
       46.9376212385        0.0026774218
       47.0376212385        0.0026825419
       47.1376212385        0.0026884242
       47.2376212385        0.0026952204
       47.3376212385        0.0027030905
       47.4376212385        0.0027121966
       47.5376212385        0.0027226958
       47.6376212385        0.0027347326
       47.7376212385        0.0027484317
       47.8376212385        0.0027638911
       47.9376212385        0.0027811757
       48.0376212385        0.0028003125
       48.1376212385        0.0028212871
       48.2376212385        0.0028440413
       48.3376212385        0.0028684729
       48.4376212385        0.0028944366
       48.5376212385        0.0029217463
       48.6376212385        0.0029501785
       48.7376212385        0.0029794772
       48.8376212385        0.0030093584
       48.9376212385        0.0030395162
       49.0376212385        0.0030696286
       49.1376212385        0.0030993631
       49.2376212385        0.0031283835
       49.3376212385        0.0031563553
       49.4376212385        0.0031829528
       49.5376212385        0.0032078650
       49.6376212385        0.0032308026
       49.7376212385        0.0032515047
       49.8376212385        0.0032697458
       49.9376212385        0.0032853428
       50.0376212385        0.0032981617
       50.1376212385        0.0033081243
       50.2376212385        0.0033152129
       50.3376212385        0.0033194748
       50.4376212385        0.0033210248
       50.5376212385        0.0033200452
       50.6376212385        0.0033167840
       50.7376212385        0.0033115502
       50.8376212385        0.0033047068
       50.9376212385        0.0032966606
       51.0376212385        0.0032878507
       51.1376212385        0.0032787343
       51.2376212385        0.0032697719
       51.3376212385        0.0032614118
       51.4376212385        0.0032540745
       51.5376212385        0.0032481387
       51.6376212385        0.0032439291
       51.7376212385        0.0032417064
       51.8376212385        0.0032416606
       51.9376212385        0.0032439086
       52.0376212385        0.0032484944
       52.1376212385        0.0032553938
       52.2376212385        0.0032645223
       52.3376212385        0.0032757460
       52.4376212385        0.0032888942
       52.5376212385        0.0033037740
       52.6376212385        0.0033201842
       52.7376212385        0.0033379295
       52.8376212385        0.0033568319
       52.9376212385        0.0033767407
       53.0376212385        0.0033975385
       53.1376212385        0.0034191442
       53.2376212385        0.0034415123
       53.3376212385        0.0034646291
       53.4376212385        0.0034885056
       53.5376212385        0.0035131686
       53.6376212385        0.0035386504
       53.7376212385        0.0035649777
       53.8376212385        0.0035921615
       53.9376212385        0.0036201880
       54.0376212385        0.0036490114
       54.1376212385        0.0036785492
       54.2376212385        0.0037086803
       54.3376212385        0.0037392452
       54.4376212385        0.0037700491
       54.5376212385        0.0038008671
       54.6376212385        0.0038314502
       54.7376212385        0.0038615325
       54.8376212385        0.0038908399
       54.9376212385        0.0039190966
       55.0376212385        0.0039460332
       55.1376212385        0.0039713930
       55.2376212385        0.0039949380
       55.3376212385        0.0040164539
       55.4376212385        0.0040357548
       55.5376212385        0.0040526874
       55.6376212385        0.0040671352
       55.7376212385        0.0040790217
       55.8376212385        0.0040883148
       55.9376212385        0.0040950301
       56.0376212385        0.0040992341
       56.1376212385        0.0041010475
       56.2376212385        0.0041006465
       56.3376212385        0.0040982636
       56.4376212385        0.0040941866
       56.5376212385        0.0040887554
       56.6376212385        0.0040823569
       56.7376212385        0.0040754172
       56.8376212385        0.0040683916
       56.9376212385        0.0040617531
       57.0376212385        0.0040559785
       57.1376212385        0.0040515335
       57.2376212385        0.0040488580
       57.3376212385        0.0040483512
       57.4376212385        0.0040503576
       57.5376212385        0.0040551552
       57.6376212385        0.0040629461
       57.7376212385        0.0040738502
       57.8376212385        0.0040879021
       57.9376212385        0.0041050517
       58.0376212385        0.0041251683
       58.1376212385        0.0041480480
       58.2376212385        0.0041734240
       58.3376212385        0.0042009790
       58.4376212385        0.0042303591
       58.5376212385        0.0042611887
       58.6376212385        0.0042930851
       58.7376212385        0.0043256727
       58.8376212385        0.0043585954
       58.9376212385        0.0043915280
       59.0376212385        0.0044241839
       59.1376212385        0.0044563221
       59.2376212385        0.0044877500
       59.3376212385        0.0045183250
       59.4376212385        0.0045479528
       59.5376212385        0.0045765841
       59.6376212385        0.0046042097
       59.7376212385        0.0046308535
       59.8376212385        0.0046565653
       59.9376212385        0.0046814121
       60.0376212385        0.0047054704
       60.1376212385        0.0047288177
       60.2376212385        0.0047515250
       60.3376212385        0.0047736507
       60.4376212385        0.0047952347
       60.5376212385        0.0048162951
       60.6376212385        0.0048368258
       60.7376212385        0.0048567959
       60.8376212385        0.0048761506
       60.9376212385        0.0048948139
       61.0376212385        0.0049126921
       61.1376212385        0.0049296784
       61.2376212385        0.0049456587
       61.3376212385        0.0049605172
       61.4376212385        0.0049741428
       61.5376212385        0.0049864348
       61.6376212385        0.0049973088
       61.7376212385        0.0050067024
       61.8376212385        0.0050145789
       61.9376212385        0.0050209325
       62.0376212385        0.0050257901
       62.1376212385        0.0050292143
       62.2376212385        0.0050313038
       62.3376212385        0.0050321933
       62.4376212385        0.0050320524
       62.5376212385        0.0050310829
       62.6376212385        0.0050295151
       62.7376212385        0.0050276034
       62.8376212385        0.0050256207
       62.9376212385        0.0050238527
       63.0376212385        0.0050225915
       63.1376212385        0.0050221296
       63.2376212385        0.0050227543
       63.3376212385        0.0050247418
       63.4376212385        0.0050283527
       63.5376212385        0.0050338284
       63.6376212385        0.0050413868
       63.7376212385        0.0050512204
       63.8376212385        0.0050634934
       63.9376212385        0.0050783395
       64.0376212385        0.0050958605
       64.1376212385        0.0051161238
       64.2376212385        0.0051391612
       64.3376212385        0.0051649671
       64.4376212385        0.0051934974
       64.5376212385        0.0052246692
       64.6376212385        0.0052583606
       64.7376212385        0.0052944123
       64.8376212385        0.0053326294
       64.9376212385        0.0053727850
       65.0376212385        0.0054146242
       65.1376212385        0.0054578687
       65.2376212385        0.0055022223
       65.3376212385        0.0055473753
       65.4376212385        0.0055930095
       65.5376212385        0.0056388017
       65.6376212385        0.0056844267
       65.7376212385        0.0057295594
       65.8376212385        0.0057738758
       65.9376212385        0.0058170540
       66.0376212385        0.0058587750
       66.1376212385        0.0058987243
       66.2376212385        0.0059365940
       66.3376212385        0.0059720873
       66.4376212385        0.0060049241
       66.5376212385        0.0060348483
       66.6376212385        0.0060616371
       66.7376212385        0.0060851110
       66.8376212385        0.0061051442
       66.9376212385        0.0061216741
       67.0376212385        0.0061347098
       67.1376212385        0.0061443377