<UPF version="2.0.1">
  <PP_INFO>
    Generated by new atomic code, or converted to UPF format
    Author: 
    Generation date: 
    Pseudopotential type: NC
    Element: Cl
    Functional:  SLA  PW   GGX  GGC

    Suggested minimum cutoff for wavefunctions:   0. Ry
    Suggested minimum cutoff for charge density:   0. Ry
    The Pseudo was generated with a Non-Relativistic Calculation
    L component and cutoff radius for Local Potential:  0   0.0000

    Valence configuration: 
    nl pn  l   occ       Rcut    Rcut US       E pseu
    3S  0  0  2.00      1.830      0.000     0.000000
    3P  0  1  5.00      1.830      0.000     0.000000
    3D  0  2  0.00      0.000      0.000     0.000000

    Generation configuration: not available.
  </PP_INFO>
  <!--                               -->
  <!-- END OF HUMAN READABLE SECTION -->
  <!--                               -->
  <PP_HEADER generated="Generated by new atomic code, or converted to UPF format"
             author=""
             date=""
             comment=""
             element="Cl"
             pseudo_type="NC"
             relativistic="no"
             is_ultrasoft="F"
             is_paw="F"
             is_coulomb="F"
             has_so="F"
             has_wfc="F"
             has_gipaw="F"
             paw_as_gipaw="F"
             core_correction="F"
             functional=" SLA  PW   GGX  GGC"
             z_valence="7.000000000000000E+000"
             total_psenergy="0.000000000000000E+000"
             wfc_cutoff="0.000000000000000E+000"
             rho_cutoff="0.000000000000000E+000"
             l_max="2"
             l_max_rho="0"
             l_local="0"
             mesh_size="175"
             number_of_wfc="3"
             number_of_proj="2"/>
  <PP_MESH dx="6.249999999998737E-002" mesh="175" xmin="-3.999999999996952E+000" rmax="5.692796268150000E+001"
zmesh="1.700000000000000E+001">
    <PP_R type="real" size="175" columns="4">
 1.077390522870000E-003  1.146876241680000E-003  1.220843404340000E-003  1.299581039120000E-003 
 1.383396815060000E-003  1.472618244120000E-003  1.567593960960000E-003  1.668695085280000E-003 
 1.776316671900000E-003  1.890879254520000E-003  2.012830488920000E-003  2.142646902200000E-003 
 2.280835754810000E-003  2.427937022690000E-003  2.584525507260000E-003  2.751213081410000E-003 
 2.928651080460000E-003  3.117532847260000E-003  3.318596441400000E-003  3.532627523250000E-003 
 3.760462423920000E-003  4.002991413240000E-003  4.261162178490000E-003  4.535983527550000E-003 
 4.828529330820000E-003  5.139942717380000E-003  5.471440541800000E-003  5.824318139050000E-003 
 6.199954385990000E-003  6.599817089430000E-003  7.025468721570000E-003  7.478572525410000E-003 
 7.960899013919999E-003  8.474332888320000E-003  9.020880402640000E-003  9.602677203170000E-003 
 1.022199667360000E-002  1.088125881810000E-002  1.158303971790000E-002  1.233008159710000E-002 
 1.312530353810000E-002  1.397181288800000E-002  1.487291740030000E-002  1.583213816050000E-002 
 1.685322334470000E-002  1.794016286540000E-002  1.909720396230000E-002  2.032886779860000E-002 
 2.163996712770000E-002  2.303562509860000E-002  2.452129527520000E-002  2.610278294590000E-002 
 2.778626780830000E-002  2.957832811590000E-002  3.148596638350000E-002  3.351663674890000E-002 
 3.567827410070000E-002  3.797932508400000E-002  4.042878110540000E-002  4.303621346740000E-002 
 4.581181076890000E-002  4.876641871650000E-002  5.191158250500000E-002  5.525959193020000E-002 
 5.882352941180000E-002  6.261732111280000E-002  6.665579135690000E-002  7.095472055420000E-002 
 7.553090686400001E-002  8.040223183380001E-002  8.558773027170000E-002  9.110766462550000E-002 
 9.698360415880000E-002  1.032385092330000E-001  1.098968210250000E-001  1.169845570340000E-001 
 1.245294127420000E-001  1.325608698360000E-001  1.411103114100000E-001  1.502111445920000E-001 
 1.598989310860000E-001  1.702115261280000E-001  1.811892264070000E-001  1.928749275260000E-001 
 2.053142916150000E-001  2.185559257610000E-001  2.326515719370000E-001  2.476563091850000E-001 
 2.636287688430000E-001  2.806313636450000E-001  2.987305315990000E-001  3.179969955970000E-001 
 3.385060397650000E-001  3.603378036400000E-001  3.835775953140000E-001  4.083162247760000E-001 
 4.346503587610000E-001  4.626828984670000E-001  4.925233816550000E-001  5.242884106590000E-001 
 5.581021080210000E-001  5.940966014990000E-001  6.324125403570000E-001  6.731996449610000E-001 
 7.166172918060000E-001  7.628351362919999E-001  8.120337756510000E-001  8.644054546350000E-001 
 9.201548167169999E-001  9.794997037420000E-001  1.042672007140000E+000  1.109918574070000E+000 
 1.181502171950000E+000  1.257702515240000E+000  1.338817358440000E+000  1.425163659570000E+000 
 1.517078818660000E+000  1.614921996200000E+000  1.719075516540000E+000  1.829946361820000E+000 
 1.947967762280000E+000  2.073600889090000E+000  2.207336656450000E+000  2.349697639750000E+000 
 2.501240117650000E+000  2.662556245660000E+000  2.834276370060000E+000  3.017071490980000E+000 
 3.211655884300000E+000  3.418789892790000E+000  3.639282897080000E+000  3.873996478380000E+000 
 4.123847785100000E+000  4.389813116660000E+000  4.672931738370000E+000  4.974309942390000E+000 
 5.295125370620000E+000  5.636631616300000E+000  6.000163122510000E+000  6.387140396520000E+000 
 6.799075560420000E+000  7.237578259830000E+000  7.704361953580000E+000  8.201250609080001E+000 
 8.730185829560000E+000  9.293234440890000E+000  9.892596567760000E+000  1.053061423070000E+001 
 1.120978049760000E+001  1.193274922530000E+001  1.270234543000000E+001  1.352157632550000E+001 
 1.439364307440000E+001  1.532195329630000E+001  1.631013438370000E+001  1.736204767570000E+001 
 1.848180354620000E+001  1.967377746580000E+001  2.094262709830000E+001  2.229331050130000E+001 
 2.373110549960000E+001  2.526163030830000E+001  2.689086548640000E+001  2.862517730580000E+001 
 3.047134262750000E+001  3.243657538280000E+001  3.452855476130000E+001  3.675545521780000E+001 
 3.912597841440000E+001  4.164938722180000E+001  4.433554191500000E+001  4.719493870160000E+001 
 5.023875073680000E+001  5.347887178230000E+001  5.692796268150000E+001
    </PP_R>
    <PP_RAB type="real" size="175" columns="4">
 6.733690767920000E-005  7.167976510510001E-005  7.630271277099999E-005  8.122381494510000E-005 
 8.646230094120001E-005  9.203864025720000E-005  9.797462256010000E-005  1.042934428300000E-004 
 1.110197919940000E-004  1.181799534080000E-004  1.258019055580000E-004  1.339154313870000E-004 
 1.425522346750000E-004  1.517460639180000E-004  1.615328442040000E-004  1.719508175880000E-004 
 1.830406925290000E-004  1.948458029540000E-004  2.074122775870000E-004  2.207892202030000E-004 
 2.350289014950000E-004  2.501869633270000E-004  2.663226361550000E-004  2.834989704720000E-004 
 3.017830831760000E-004  3.212464198360000E-004  3.419650338630000E-004  3.640198836910000E-004 
 3.874971491250000E-004  4.124885680890000E-004  4.390917950980000E-004  4.674107828380000E-004 
 4.975561883700000E-004  5.296458055200000E-004  5.638050251650000E-004  6.001673251980000E-004 
 6.388747920970000E-004  6.800786761300001E-004  7.239399823680000E-004  7.706300998200000E-004 
 8.203314711340000E-004  8.732383054980000E-004  9.295573375170000E-004  9.895086350340000E-004 
 1.053326459040000E-003  1.121260179080000E-003  1.193575247640000E-003  1.270554237420000E-003 
 1.352497945480000E-003  1.439726568660000E-003  1.532580954700000E-003  1.631423934120000E-003 
 1.736641738020000E-003  1.848645507250000E-003  1.967872898970000E-003  2.094789796800000E-003 
 2.229892131300000E-003  2.373707817750000E-003  2.526798819080000E-003  2.689763341720000E-003 
 2.863238173060000E-003  3.047901169780000E-003  3.244473906560000E-003  3.453724495640000E-003 
 3.676470588240000E-003  3.913582569550000E-003  4.165986959800000E-003  4.434670034640000E-003 
 4.720681679000000E-003  5.025139489610000E-003  5.349233141980000E-003  5.694229039100000E-003 
 6.061475259930000E-003  6.452406827060000E-003  6.868551314090000E-003  7.311534814640000E-003 
 7.783088296370000E-003  8.285054364749999E-003  8.819394463109999E-003  9.388196537000000E-003 
 9.993683192860000E-003  1.063822038300000E-002  1.132432665040000E-002  1.205468297040000E-002 
 1.283214322600000E-002  1.365974536010000E-002  1.454072324600000E-002  1.547851932410000E-002 
 1.647679805270000E-002  1.753946022780000E-002  1.867065822490000E-002  1.987481222480000E-002 
 2.115662748530000E-002  2.252111272750000E-002  2.397359970710000E-002  2.551976404850000E-002 
 2.716564742250000E-002  2.891768115420000E-002  3.078271135340000E-002  3.276802566620000E-002 
 3.488138175130000E-002  3.713103759370000E-002  3.952578377230000E-002  4.207497781000000E-002 
 4.478858073790000E-002  4.767719601830000E-002  5.075211097820000E-002  5.402534091470000E-002 
 5.750967604480000E-002  6.121873148390000E-002  6.516700044660000E-002  6.936991087970000E-002 
 7.384388574700000E-002  7.860640720270000E-002  8.367608490270000E-002  8.907272872280000E-002 
 9.481742616619999E-002  1.009326247630000E-001  1.074422197840000E-001  1.143716476140000E-001 
 1.217479851420000E-001  1.296000555680000E-001  1.379585410280000E-001  1.468561024850000E-001 
 1.563275073530000E-001  1.664097653540000E-001  1.771422731290000E-001  1.885669681860000E-001 
 2.007284927690000E-001  2.136743682990000E-001  2.274551810680000E-001  2.421247798990000E-001 
 2.577404865690000E-001  2.743633197910000E-001  2.920582336480000E-001  3.108943714000000E-001 
 3.309453356640000E-001  3.522894760190000E-001  3.750101951570000E-001  3.991962747820000E-001 
 4.249422225260000E-001  4.523486412400000E-001  4.815226220990000E-001  5.125781630680000E-001 
 5.456366143480000E-001  5.808271525560000E-001  6.182872854850000E-001  6.581633894180000E-001 
 7.006112810980000E-001  7.457968265840000E-001  7.938965893770000E-001  8.450985203460000E-001 
 8.996026921480000E-001  9.576220810190000E-001  1.019383398980000E+000  1.085127979730000E+000 
 1.155112721640000E+000  1.229611091610000E+000  1.308914193640000E+000  1.393331906330000E+000 
 1.483194093720000E+000  1.578851894270000E+000  1.680679092900000E+000  1.789073581610000E+000 
 1.904458914220000E+000  2.027285961430000E+000  2.158034672580000E+000  2.297215951110000E+000 
 2.445373650900000E+000  2.603086701370000E+000  2.770971369690000E+000  2.949683668850000E+000 
 3.139921921050000E+000  3.342429486390000E+000  3.557997667590000E+000
    </PP_RAB>
  </PP_MESH>
  <PP_LOCAL type="real" size="175" columns="4">
-1.309571700000000E+001 -1.309684200000000E+001 -1.309811600000000E+001 -1.309955900000000E+001 
-1.310119300000000E+001 -1.310304200000000E+001 -1.310513500000000E+001 -1.310750400000000E+001 
-1.311018400000000E+001 -1.311321600000000E+001 -1.311664600000000E+001 -1.312052400000000E+001 
-1.312490700000000E+001 -1.312986100000000E+001 -1.313545700000000E+001 -1.314177600000000E+001 
-1.314890700000000E+001 -1.315695200000000E+001 -1.316602200000000E+001 -1.317623900000000E+001 
-1.318774100000000E+001 -1.320067700000000E+001 -1.321521200000000E+001 -1.323152500000000E+001 
-1.324980900000000E+001 -1.327027100000000E+001 -1.329313500000000E+001 -1.331863100000000E+001 
-1.334700100000000E+001 -1.337849000000000E+001 -1.341334300000000E+001 -1.345179300000000E+001 
-1.349405300000000E+001 -1.354030400000000E+001 -1.359067500000000E+001 -1.364522300000000E+001 
-1.370391200000000E+001 -1.376657800000000E+001 -1.383290700000000E+001 -1.390239300000000E+001 
-1.397430700000000E+001 -1.404767000000000E+001 -1.412122300000000E+001 -1.419342600000000E+001 
-1.426245800000000E+001 -1.432626800000000E+001 -1.438264500000000E+001 -1.442934800000000E+001 
-1.446427000000000E+001 -1.448566600000000E+001 -1.449239400000000E+001 -1.448417700000000E+001 
-1.446182200000000E+001 -1.442734500000000E+001 -1.438395800000000E+001 -1.433584500000000E+001 
-1.428773900000000E+001 -1.424430200000000E+001 -1.420943100000000E+001 -1.418562800000000E+001 
-1.417361100000000E+001 -1.417230300000000E+001 -1.417923600000000E+001 -1.419125300000000E+001 
-1.420530300000000E+001 -1.421906300000000E+001 -1.423120400000000E+001 -1.424130400000000E+001 
-1.424951600000000E+001 -1.425619300000000E+001 -1.426161900000000E+001 -1.426589400000000E+001 
-1.426894000000000E+001 -1.427056400000000E+001 -1.427051600000000E+001 -1.426854000000000E+001 
-1.426440100000000E+001 -1.425789900000000E+001 -1.424888100000000E+001 -1.423724300000000E+001 
-1.422293500000000E+001 -1.420594900000000E+001 -1.418632100000000E+001 -1.416411900000000E+001 
-1.413943200000000E+001 -1.411236000000000E+001 -1.408300500000000E+001 -1.405145900000000E+001 
-1.401779700000000E+001 -1.398207800000000E+001 -1.394433400000000E+001 -1.390458200000000E+001 
-1.386281400000000E+001 -1.381900600000000E+001 -1.377311800000000E+001 -1.372508400000000E+001 
-1.367481300000000E+001 -1.362216600000000E+001 -1.356693300000000E+001 -1.350879700000000E+001 
-1.344727300000000E+001 -1.338164800000000E+001 -1.331107200000000E+001 -1.323543700000000E+001 
-1.315610600000000E+001 -1.306475300000000E+001 -1.292542100000000E+001 -1.274512600000000E+001 
-1.261023400000000E+001 -1.243383000000000E+001 -1.211450600000000E+001 -1.179457800000000E+001 
-1.144148300000000E+001 -1.098370300000000E+001 -1.046798600000000E+001 -9.904778500000001E+000 
-9.309899600000000E+000 -8.713286800000001E+000 -8.151900400000001E+000 -7.649741400000000E+000 
-7.186751500000000E+000 -6.751440800000000E+000 -6.342442200000000E+000 -5.958197600000000E+000 
-5.597219600000000E+000 -5.258105200000000E+000 -4.939533800000000E+000 -4.640262700000000E+000 
-4.359123200000000E+000 -4.095017000000000E+000 -3.846912200000000E+000 -3.613839600000000E+000 
-3.394888200000000E+000 -3.189202300000000E+000 -2.995978500000000E+000 -2.814461500000000E+000 
-2.643941800000000E+000 -2.483753300000000E+000 -2.333270300000000E+000 -2.191904600000000E+000 
-2.059103800000000E+000 -1.934349000000000E+000 -1.817152700000000E+000 -1.707057000000000E+000 
-1.603631600000000E+000 -1.506472500000000E+000 -1.415199900000000E+000 -1.329457300000000E+000 
-1.248909600000000E+000 -1.173242000000000E+000 -1.102158800000000E+000 -1.035382400000000E+000 
-9.726517500000000E-001 -9.137217600000000E-001 -8.583621500000000E-001 -8.063566200000000E-001 
-7.575019500000000E-001 -7.116072200000000E-001 -6.684931200000001E-001 -6.279911700000000E-001 
-5.899431100000000E-001 -5.542002600000000E-001 -5.206229600000000E-001 -4.890800100000000E-001 
-4.594481500000000E-001 -4.316116000000000E-001 -4.054615700000000E-001 -3.808959000000000E-001 
-3.578185800000000E-001 -3.361394500000000E-001 -3.157737900000000E-001 -2.966420200000000E-001 
-2.786693900000000E-001 -2.617856700000000E-001 -2.459248800000000E-001
  </PP_LOCAL>
  <PP_NONLOCAL>
    <PP_BETA.1 type="real" size="175" columns="4" index="1" label="3S" angular_momentum="0" cutoff_radius_index="148"
cutoff_radius="1.830000000000000E+000" ultrasoft_cutoff_radius="0.000000000000000E+000">
 3.759287669990000E-003  4.001740935820000E-003  4.259830967980000E-003  4.534566777740000E-003 
 4.827021711380000E-003  5.138338083780000E-003  5.469732078520000E-003  5.822500297960000E-003 
 6.198019423580000E-003  6.597757878550000E-003  7.023278012130000E-003  7.476241673370000E-003 
 7.958418222620001E-003  8.471693773870000E-003  9.018072731950001E-003  9.599690895400000E-003 
 1.021881863660000E-002  1.087787910220000E-002  1.157944627670000E-002  1.232625943430000E-002 
 1.312123978110000E-002  1.396749159590000E-002  1.486832464480000E-002  1.582725851870000E-002 
 1.684804036650000E-002  1.793465463150000E-002  1.909135875460000E-002  2.032266330870000E-002 
 2.163338406590000E-002  2.302864051770000E-002  2.451389251620000E-002  2.609494147210000E-002 
 2.777796315780000E-002  2.956954211890000E-002  3.147668160640000E-002  3.350683112770000E-002 
 3.566793701770000E-002  3.796843044310000E-002  4.041732466300000E-002  4.302419060570000E-002 
 4.579921253750000E-002  4.875325740340000E-002  5.189786046580000E-002  5.524535003800000E-002 
 5.880879358120000E-002  6.260215167920000E-002  6.664026188790000E-002  7.093895238020000E-002 
 7.551502064830000E-002  8.038642372730000E-002  8.557221648640000E-002  9.109272565569999E-002 
 9.696961996880001E-002  1.032259251460000E-001  1.098862136110000E-001  1.169765941500000E-001 
 1.245249686720000E-001  1.325609853400000E-001  1.411162623830000E-001  1.502244943330000E-001 
 1.599215816360000E-001  1.702457724440000E-001  1.812378918250000E-001  1.929413712750000E-001 
 2.054025564390000E-001  2.186709797960000E-001  2.327993229000000E-001  2.478438311930000E-001 
 2.638645646230000E-001  2.809255847330000E-001  2.990953135930000E-001  3.184467463580000E-001 
 3.390578025680000E-001  3.610118471850000E-001  3.843976883100000E-001  4.093102381240000E-001 
 4.358508612120000E-001  4.641275188400000E-001  4.942553765660000E-001  5.263569199550000E-001 
 5.605626006630000E-001  5.970101360240000E-001  6.358452960110000E-001  6.772210676940000E-001 
 7.212968550990000E-001  7.682373223870000E-001  8.182100235890000E-001  8.713819167910000E-001 
 9.279138899479999E-001  9.879541861740000E-001  1.051626175050000E+000  1.119015033360000E+000 
 1.190144429680000E+000  1.264948877370000E+000  1.343233435280000E+000  1.424618231380000E+000 
 1.508468211840000E+000  1.593795343660000E+000  1.679135202410000E+000  1.762390786770000E+000 
 1.840638911090000E+000  1.909906960830000E+000  1.964933033530000E+000  1.998949102680000E+000 
 2.003560705220000E+000  1.968865072780000E+000  1.884004158940000E+000  1.738463662790000E+000 
 1.524434946260000E+000  1.240474652260000E+000  8.962317107090000E-001  5.171002786459999E-001 
 1.461831904200000E-001 -1.603069184470000E-001 -3.476112171580000E-001 -3.859395559710000E-001 
-2.934687988660000E-001 -1.417260488100000E-001 -2.706187285790000E-002  0.000000000000000E+000 
 0.000000000000000E+000  0.000000000000000E+000  0.000000000000000E+000  0.000000000000000E+000 
 0.000000000000000E+000  0.000000000000000E+000  0.000000000000000E+000  0.000000000000000E+000 
 0.000000000000000E+000  0.000000000000000E+000  0.000000000000000E+000  0.000000000000000E+000 
 0.000000000000000E+000  0.000000000000000E+000  0.000000000000000E+000  0.000000000000000E+000 
 0.000000000000000E+000  0.000000000000000E+000  0.000000000000000E+000  0.000000000000000E+000 
 0.000000000000000E+000  0.000000000000000E+000  0.000000000000000E+000  0.000000000000000E+000 
 0.000000000000000E+000  0.000000000000000E+000  0.000000000000000E+000  0.000000000000000E+000 
 0.000000000000000E+000  0.000000000000000E+000  0.000000000000000E+000  0.000000000000000E+000 
 0.000000000000000E+000  0.000000000000000E+000  0.000000000000000E+000  0.000000000000000E+000 
 0.000000000000000E+000  0.000000000000000E+000  0.000000000000000E+000  0.000000000000000E+000 
 0.000000000000000E+000  0.000000000000000E+000  0.000000000000000E+000  0.000000000000000E+000 
 0.000000000000000E+000  0.000000000000000E+000  0.000000000000000E+000  0.000000000000000E+000 
 0.000000000000000E+000  0.000000000000000E+000  0.000000000000000E+000  0.000000000000000E+000 
 0.000000000000000E+000  0.000000000000000E+000  0.000000000000000E+000
    </PP_BETA.1>
    <PP_BETA.2 type="real" size="175" columns="4" index="2" label="3P" angular_momentum="2" cutoff_radius_index="148"
cutoff_radius="1.830000000000000E+000" ultrasoft_cutoff_radius="0.000000000000000E+000">
-2.227913363980000E-009 -2.687377152180000E-009 -3.241595563030000E-009 -3.910110360210000E-009 
-4.716491810130000E-009 -5.689176630520000E-009 -6.862456893480000E-009 -8.277702676120000E-009 
-9.984814990470000E-009 -1.204398468200000E-008 -1.452781708400000E-008 -1.752388985180000E-008 
-2.113784195990000E-008 -2.549709798980000E-008 -3.075536137710000E-008 -3.709802187840000E-008 
-4.474875089800000E-008 -5.397726898490000E-008 -6.510895402510000E-008 -7.853636062219999E-008 
-9.473285377830000E-008 -1.142695210320000E-007 -1.378351962370000E-007 -1.662607673520000E-007 
-2.005483949970000E-007 -2.419071998980000E-007 -2.917951021730000E-007 -3.519712644420000E-007 
-4.245572978900000E-007 -5.121124887080000E-007 -6.177234717890000E-007 -7.451138319650000E-007 
-8.987748270390000E-007 -1.084123916810000E-006 -1.307695525730000E-006 -1.577371555000000E-006 
-1.902658481590000E-006 -2.295025571410000E-006 -2.768302626090000E-006 -3.339173778030000E-006 
-4.027762525030000E-006 -4.858339074470000E-006 -5.860183833600000E-006 -7.068600378650000E-006 
-8.526186942709999E-006 -1.028430119900000E-005 -1.240491097120000E-005 -1.496272414850000E-005 
-1.804788221350000E-005 -2.176905320200000E-005 -2.625734097950000E-005 -3.167082690470000E-005 
-3.820014670330000E-005 -4.607523335050000E-005 -5.557330027290000E-005 -6.702870146330000E-005 
-8.084451006149999E-005 -9.750678873500000E-005 -1.176015595550000E-004 -1.418352720530000E-004 
-1.710595883730000E-004 -2.063012570190000E-004 -2.487974677330000E-004 -3.000395446160000E-004 
-3.618244874810000E-004 -4.363173477320000E-004 -5.261261991040000E-004 -6.343928868630000E-004 
-7.649004233030000E-004 -9.222031322870000E-004 -1.111782552720000E-003 -1.340235246440000E-003 
-1.615494762580000E-003 -1.947100030530000E-003 -2.346515324610000E-003 -2.827510088630000E-003 
-3.406612137660000E-003 -4.103651273060000E-003 -4.942388205030000E-003 -5.951282677370000E-003 
-7.164358653030000E-003 -8.622271085150001E-003 -1.037349637930000E-002 -1.247573935160000E-002 
-1.499754943310000E-002 -1.802012915920000E-002 -2.163939480660000E-002 -2.596818663920000E-002 
-3.113870201300000E-002 -3.730492114840000E-002 -4.464503901820000E-002 -5.336340417950000E-002 
-6.369214550820000E-002 -7.589112536240000E-002 -9.024633860520000E-002 -1.070652625040000E-001 
-1.266675511350000E-001 -1.493703426330000E-001 -1.754648287490000E-001 -2.051823307240000E-001 
-2.386483034350000E-001 -2.758210895760000E-001 -3.164164505620000E-001 -3.598215528980000E-001 
-4.050059052550000E-001 -4.504451966720000E-001 -4.940859323140000E-001 -5.333820128009999E-001 
-5.654481136240000E-001 -5.873525117600000E-001 -5.965561963790000E-001 -5.914205744900000E-001 
-5.716279001400000E-001 -5.382473242800000E-001 -4.931684510260000E-001 -4.377688130230000E-001 
-3.711561782190000E-001 -2.891729937910000E-001 -1.867599844550000E-001 -6.871489433529999E-002 
 3.515941758440000E-002  1.027318734110000E-001  1.249067384420000E-001  1.035572934800000E-001 
 5.536268257890000E-002  1.188249594770000E-002  0.000000000000000E+000  0.000000000000000E+000 
 0.000000000000000E+000  0.000000000000000E+000  0.000000000000000E+000  0.000000000000000E+000 
 0.000000000000000E+000  0.000000000000000E+000  0.000000000000000E+000  0.000000000000000E+000 
 0.000000000000000E+000  0.000000000000000E+000  0.000000000000000E+000  0.000000000000000E+000 
 0.000000000000000E+000  0.000000000000000E+000  0.000000000000000E+000  0.000000000000000E+000 
 0.000000000000000E+000  0.000000000000000E+000  0.000000000000000E+000  0.000000000000000E+000 
 0.000000000000000E+000  0.000000000000000E+000  0.000000000000000E+000  0.000000000000000E+000 
 0.000000000000000E+000  0.000000000000000E+000  0.000000000000000E+000  0.000000000000000E+000 
 0.000000000000000E+000  0.000000000000000E+000  0.000000000000000E+000  0.000000000000000E+000 
 0.000000000000000E+000  0.000000000000000E+000  0.000000000000000E+000  0.000000000000000E+000 
 0.000000000000000E+000  0.000000000000000E+000  0.000000000000000E+000  0.000000000000000E+000 
 0.000000000000000E+000  0.000000000000000E+000  0.000000000000000E+000  0.000000000000000E+000 
 0.000000000000000E+000  0.000000000000000E+000  0.000000000000000E+000
    </PP_BETA.2>
    <PP_DIJ type="real" size="4" columns="4">
 1.687881924110000E+000  0.000000000000000E+000  0.000000000000000E+000 -6.005481347840000E+000
    </PP_DIJ>
  </PP_NONLOCAL>
  <PP_PSWFC>
    <PP_CHI.1 type="real" size="175" columns="4" index="1" label="3S" l="0" occupation="2.000000000000000E+000" n="0"
pseudo_energy="0.000000000000000E+000" cutoff_radius="1.830000000000000E+000" ultrasoft_cutoff_radius="0.000000000000000E+000">
 7.430178800000000E-004  7.909384400000000E-004  8.419496199999999E-004  8.962507500000000E-004 
 9.540540000000000E-004  1.015585300000000E-003  1.081084900000000E-003  1.150809000000000E-003 
 1.225029900000000E-003  1.304037700000000E-003  1.388141000000000E-003  1.477668600000000E-003 
 1.572970300000000E-003  1.674418400000000E-003  1.782409400000000E-003  1.897365300000000E-003 
 2.019735300000000E-003  2.149997600000000E-003  2.288661100000000E-003  2.436267900000000E-003 
 2.593394600000000E-003  2.760655300000000E-003  2.938703700000000E-003  3.128235400000000E-003 
 3.329991300000000E-003  3.544759700000000E-003  3.773380000000000E-003  4.016745600000000E-003 
 4.275807700000000E-003  4.551578700000000E-003  4.845136400000000E-003  5.157628300000000E-003 
 5.490275700000000E-003  5.844378900000000E-003  6.221322000000000E-003  6.622578600000000E-003 
 7.049717200000000E-003  7.504407800000000E-003  7.988428200000000E-003  8.503670800000000E-003 
 9.052150700000001E-003  9.636012800000000E-003  1.025754100000000E-002  1.091916600000000E-002 
 1.162347700000000E-002  1.237322900000000E-002  1.317135800000000E-002  1.402098700000000E-002 
 1.492544300000000E-002  1.588826900000000E-002  1.691323600000000E-002  1.800436200000000E-002 
 1.916592500000000E-002  2.040248200000000E-002  2.171888400000000E-002  2.312030100000000E-002 
 2.461224000000000E-002  2.620056700000000E-002  2.789153400000000E-002  2.969180100000000E-002 
 3.160846700000000E-002  3.364910100000000E-002  3.582177000000000E-002  3.813507700000000E-002 
 4.059819900000000E-002  4.322092500000000E-002  4.601370400000000E-002  4.898768800000000E-002 
 5.215479000000000E-002  5.552773300000000E-002  5.912012100000000E-002  6.294650000000000E-002 
 6.702243700000000E-002  7.136459900000000E-002  7.599084900000000E-002  8.092034200000001E-002 
 8.617364299999999E-002  9.177284900000000E-002  9.774173400000000E-002  1.041059100000000E-001 
 1.108929900000000E-001  1.181328200000000E-001  1.258577000000000E-001  1.341026400000000E-001 
 1.429056600000000E-001  1.523081700000000E-001  1.623553000000000E-001  1.730964300000000E-001 
 1.845856500000000E-001  1.968823600000000E-001  2.100519700000000E-001  2.241665600000000E-001 
 2.393057400000000E-001  2.555575100000000E-001  2.730190600000000E-001  2.917976400000000E-001 
 3.120111200000000E-001  3.337882100000000E-001  3.572679400000000E-001  3.825979100000000E-001 
 4.099305300000000E-001  4.394161400000000E-001  4.711912900000000E-001  5.053601400000000E-001 
 5.419658200000000E-001  5.809483600000001E-001  6.220855600000000E-001  6.649140500000000E-001 
 7.086314700000000E-001  7.519883100000000E-001  7.931913900000001E-001  8.298606500000000E-001 
 8.591026600000000E-001  8.777736200000000E-001  8.829768700000000E-001  8.727488000000000E-001 
 8.467301600000000E-001  8.064663000000000E-001  7.549818900000000E-001  6.956274000000000E-001 
 6.310325100000000E-001  5.634367600000000E-001  4.949715700000000E-001  4.276104600000000E-001 
 3.630979400000000E-001  3.028889400000000E-001  2.480989500000000E-001  1.994703900000000E-001 
 1.573631100000000E-001  1.217735300000000E-001  9.238093200000000E-002  6.861895699999999E-002 
 4.977576400000000E-002  3.512243100000000E-002  2.401425700000000E-002  1.587860100000000E-002 
 1.014987900000000E-002  6.270903700000000E-003  3.741527300000000E-003  2.152529800000000E-003 
 1.191662400000000E-003  6.333484300000000E-004  3.223254600000000E-004  1.566376200000000E-004 
 7.246814800000000E-005  3.181693200000000E-005  1.321126100000000E-005  5.169117200000000E-006 
 1.898335300000000E-006  6.516098100000000E-007  2.081112200000000E-007  6.154258400000000E-008 
 1.676214900000000E-008  4.180741800000000E-009  9.488573200000000E-010  1.945977700000000E-010 
 3.578514400000000E-011  5.863732100000000E-012  9.569603100000001E-013  1.382964600000000E-013 
 1.755984600000000E-014  1.942667000000000E-015  1.856033400000000E-016  1.516965800000000E-017 
 1.050017000000000E-018  6.089663800000000E-020  2.925583600000000E-021  1.150217800000000E-022 
 3.653272600000000E-024  9.245755900000000E-026  1.837382600000000E-027  2.822811100000000E-029 
 3.297467200000000E-031  2.877544800000000E-033  0.000000000000000E+000
    </PP_CHI.1>
    <PP_CHI.2 type="real" size="175" columns="4" index="2" label="3P" l="1" occupation="5.000000000000000E+000" n="0"
pseudo_energy="0.000000000000000E+000" cutoff_radius="1.830000000000000E+000" ultrasoft_cutoff_radius="0.000000000000000E+000">
 1.302217800000000E-006  1.475606000000000E-006  1.672080600000000E-006  1.894715300000000E-006 
 2.146993500000000E-006  2.432862100000000E-006  2.756793600000000E-006  3.123856000000000E-006 
 3.539792000000000E-006  4.011109100000000E-006  4.545181100000000E-006  5.150363700000000E-006 
 5.836125100000000E-006  6.613194100000000E-006  7.493728000000000E-006  8.491502900000000E-006 
 9.622129000000000E-006  1.090329500000000E-005  1.235504500000000E-005  1.400009000000000E-005 
 1.586416900000000E-005  1.797644200000000E-005  2.036995800000000E-005  2.308216100000000E-005 
 2.615548200000000E-005  2.963800100000000E-005  3.358420100000000E-005  3.805581500000000E-005 
 4.312279800000000E-005  4.886441600000000E-005  5.537048900000000E-005  6.274279200000000E-005 
 7.109665200000000E-005  8.056274600000001E-005  9.128914600000000E-005  1.034436300000000E-004 
 1.172163200000000E-004  1.328226400000000E-004  1.505066600000000E-004  1.705449800000000E-004 
 1.932509600000000E-004  2.189796800000000E-004  2.481334900000000E-004  2.811682200000000E-004 
 3.186003900000000E-004  3.610151800000000E-004  4.090756300000000E-004  4.635329400000000E-004 
 5.252381700000000E-004  5.951555400000000E-004  6.743773900000001E-004  7.641412000000000E-004 