calculator: pwmat
nqpoint: 404    
npath: 4      
segment_nqpoint:
- 101
- 101
- 101
- 101
reciprocal_lattice:
- [  -0.18525802,   0.18525802,   0.18525802 ] # a*
- [   0.18525802,  -0.18525802,   0.18525802 ] # b*
- [   0.18525802,   0.18525802,  -0.18525802 ] # c*
natom: 2      
lattice:
- [     0.000000000000000,     2.698938522500000,     2.698938522500000 ] # a
- [     2.698938522500000,     0.000000000000000,     2.698938522500000 ] # b
- [     2.698938522500000,     2.698938522500000,     0.000000000000000 ] # c
points:
- symbol: Na # 1
  coordinates: [  0.000000000000000,  0.000000000000000,  0.000000000000000 ]
  mass: 22.989769
- symbol: Cl # 2
  coordinates: [  0.500000000000000,  0.500000000000000,  0.500000000000000 ]
  mass: 35.453000
supercell_matrix:
- [   -9,    9,    9 ]
- [    9,   -9,    9 ]
- [    9,    9,   -9 ]

phonon:
- q-position: [    0.0000000,    0.0000000,    0.0000000 ]
  distance:    0.0000000
  label: '\Gamma'
  band:
  - # 1
    frequency:    0.0000001412
  - # 2
    frequency:    0.0000001832
  - # 3
    frequency:    0.0000002036
  - # 4
    frequency:    6.3116764801
  - # 5
    frequency:    6.3116764801
  - # 6
    frequency:    6.3116764801

- q-position: [    0.0050000,    0.0000000,    0.0000000 ]
  distance:    0.0016044
  band:
  - # 1
    frequency:    0.0552977513
  - # 2
    frequency:    0.0552977513
  - # 3
    frequency:    0.0777562159
  - # 4
    frequency:    6.3116327819
  - # 5
    frequency:    6.3116327819
  - # 6
    frequency:    6.3126712411

- q-position: [    0.0100000,    0.0000000,    0.0000000 ]
  distance:    0.0032088
  band:
  - # 1
    frequency:    0.1105872134
  - # 2
    frequency:    0.1105872134
  - # 3
    frequency:    0.1555060625
  - # 4
    frequency:    6.3115002757
  - # 5
    frequency:    6.3115002757
  - # 6
    frequency:    6.3156500429

- q-position: [    0.0150000,    0.0000000,    0.0000000 ]
  distance:    0.0048131
  band:
  - # 1
    frequency:    0.1658601466
  - # 2
    frequency:    0.1658601466
  - # 3
    frequency:    0.2332431062
  - # 4
    frequency:    6.3112747466
  - # 5
    frequency:    6.3112747466
  - # 6
    frequency:    6.3205965027

- q-position: [    0.0200000,    0.0000000,    0.0000000 ]
  distance:    0.0064175
  band:
  - # 1
    frequency:    0.2211084084
  - # 2
    frequency:    0.2211084084
  - # 3
    frequency:    0.3109607851
  - # 4
    frequency:    6.3109492361
  - # 5
    frequency:    6.3109492361
  - # 6
    frequency:    6.3274835148

- q-position: [    0.0250000,    0.0000000,    0.0000000 ]
  distance:    0.0080219
  band:
  - # 1
    frequency:    0.2763239996
  - # 2
    frequency:    0.2763239996
  - # 3
    frequency:    0.3886523463
  - # 4
    frequency:    6.3105141416
  - # 5
    frequency:    6.3105141416
  - # 6
    frequency:    6.3362735453

- q-position: [    0.0300000,    0.0000000,    0.0000000 ]
  distance:    0.0096263
  band:
  - # 1
    frequency:    0.3314991065
  - # 2
    frequency:    0.3314991065
  - # 3
    frequency:    0.4663107843
  - # 4
    frequency:    6.3099573524
  - # 5
    frequency:    6.3099573524
  - # 6
    frequency:    6.3469190366

- q-position: [    0.0350000,    0.0000000,    0.0000000 ]
  distance:    0.0112307
  band:
  - # 1
    frequency:    0.3866261396
  - # 2
    frequency:    0.3866261396
  - # 3
    frequency:    0.5439287821
  - # 4
    frequency:    6.3092644215
  - # 5
    frequency:    6.3092644215
  - # 6
    frequency:    6.3593629116

- q-position: [    0.0400000,    0.0000000,    0.0000000 ]
  distance:    0.0128351
  band:
  - # 1
    frequency:    0.4416977665
  - # 2
    frequency:    0.4416977665
  - # 3
    frequency:    0.6214986540
  - # 4
    frequency:    6.3084187703
  - # 5
    frequency:    6.3084187703
  - # 6
    frequency:    6.3735391707

- q-position: [    0.0450000,    0.0000000,    0.0000000 ]
  distance:    0.0144394
  band:
  - # 1
    frequency:    0.4967069388
  - # 2
    frequency:    0.4967069388
  - # 3
    frequency:    0.6990122915
  - # 4
    frequency:    6.3074019228
  - # 5
    frequency:    6.3074019228
  - # 6
    frequency:    6.3893735675

- q-position: [    0.0500000,    0.0000000,    0.0000000 ]
  distance:    0.0160438
  band:
  - # 1
    frequency:    0.5516469133
  - # 2
    frequency:    0.5516469133
  - # 3
    frequency:    0.7764611131
  - # 4
    frequency:    6.3061937667
  - # 5
    frequency:    6.3061937667
  - # 6
    frequency:    6.4067843519

- q-position: [    0.0550000,    0.0000000,    0.0000000 ]
  distance:    0.0176482
  band:
  - # 1
    frequency:    0.6065112652
  - # 2
    frequency:    0.6065112652
  - # 3
    frequency:    0.8538360170
  - # 4
    frequency:    6.3047728361
  - # 5
    frequency:    6.3047728361
  - # 6
    frequency:    6.4256830667

- q-position: [    0.0600000,    0.0000000,    0.0000000 ]
  distance:    0.0192526
  band:
  - # 1
    frequency:    0.6612938953
  - # 2
    frequency:    0.6612938953
  - # 3
    frequency:    0.9311273380
  - # 4
    frequency:    6.3031166126
  - # 5
    frequency:    6.3031166126
  - # 6
    frequency:    6.4459753842

- q-position: [    0.0650000,    0.0000000,    0.0000000 ]
  distance:    0.0208570
  band:
  - # 1
    frequency:    0.7159890289
  - # 2
    frequency:    0.7159890289
  - # 3
    frequency:    1.0083248095
  - # 4
    frequency:    6.3012018412
  - # 5
    frequency:    6.3012018412
  - # 6
    frequency:    6.4675619686

- q-position: [    0.0700000,    0.0000000,    0.0000000 ]
  distance:    0.0224613
  band:
  - # 1
    frequency:    0.7705912078
  - # 2
    frequency:    0.7705912078
  - # 3
    frequency:    1.0854175291
  - # 4
    frequency:    6.2990048542
  - # 5
    frequency:    6.2990048542
  - # 6
    frequency:    6.4903393514

- q-position: [    0.0750000,    0.0000000,    0.0000000 ]
  distance:    0.0240657
  band:
  - # 1
    frequency:    0.8250952752
  - # 2
    frequency:    0.8250952752
  - # 3
    frequency:    1.1623939299
  - # 4
    frequency:    6.2965019006
  - # 5
    frequency:    6.2965019006
  - # 6
    frequency:    6.5142008065

- q-position: [    0.0800000,    0.0000000,    0.0000000 ]
  distance:    0.0256701
  band:
  - # 1
    frequency:    0.8794963538
  - # 2
    frequency:    0.8794963538
  - # 3
    frequency:    1.2392417566
  - # 4
    frequency:    6.2936694748
  - # 5
    frequency:    6.2936694748
  - # 6
    frequency:    6.5390372124

- q-position: [    0.0850000,    0.0000000,    0.0000000 ]
  distance:    0.0272745
  band:
  - # 1
    frequency:    0.9337898171
  - # 2
    frequency:    0.9337898171
  - # 3
    frequency:    1.3159480470
  - # 4
    frequency:    6.2904846419
  - # 5
    frequency:    6.2904846419
  - # 6
    frequency:    6.5647378928

- q-position: [    0.0900000,    0.0000000,    0.0000000 ]
  distance:    0.0288789
  band:
  - # 1
    frequency:    0.9879712559
  - # 2
    frequency:    0.9879712559
  - # 3
    frequency:    1.3924991190
  - # 4
    frequency:    6.2869253519
  - # 5
    frequency:    6.2869253519
  - # 6
    frequency:    6.5911914225

- q-position: [    0.0950000,    0.0000000,    0.0000000 ]
  distance:    0.0304832
  band:
  - # 1
    frequency:    1.0420364377
  - # 2
    frequency:    1.0420364377
  - # 3
    frequency:    1.4688805631
  - # 4
    frequency:    6.2829707423
  - # 5
    frequency:    6.2829707423
  - # 6
    frequency:    6.6182863940

- q-position: [    0.1000000,    0.0000000,    0.0000000 ]
  distance:    0.0320876
  band:
  - # 1
    frequency:    1.0959812638
  - # 2
    frequency:    1.0959812638
  - # 3
    frequency:    1.5450772410
  - # 4
    frequency:    6.2786014218
  - # 5
    frequency:    6.2786014218
  - # 6
    frequency:    6.6459121341

- q-position: [    0.1050000,    0.0000000,    0.0000000 ]
  distance:    0.0336920
  band:
  - # 1
    frequency:    1.1498017202
  - # 2
    frequency:    1.1498017202
  - # 3
    frequency:    1.6210732898
  - # 4
    frequency:    6.2737997334
  - # 5
    frequency:    6.2737997334
  - # 6
    frequency:    6.6739593681

- q-position: [    0.1100000,    0.0000000,    0.0000000 ]
  distance:    0.0352964
  band:
  - # 1
    frequency:    1.2034938274
  - # 2
    frequency:    1.2034938274
  - # 3
    frequency:    1.6968521317
  - # 4
    frequency:    6.2685499920
  - # 5
    frequency:    6.2685499920
  - # 6
    frequency:    6.7023208247

- q-position: [    0.1150000,    0.0000000,    0.0000000 ]
  distance:    0.0369008
  band:
  - # 1
    frequency:    1.2570535863
  - # 2
    frequency:    1.2570535863
  - # 3
    frequency:    1.7723964906
  - # 4
    frequency:    6.2628386944
  - # 5
    frequency:    6.2628386944
  - # 6
    frequency:    6.7308917793

- q-position: [    0.1200000,    0.0000000,    0.0000000 ]
  distance:    0.0385052
  band:
  - # 1
    frequency:    1.3104769233
  - # 2
    frequency:    1.3104769233
  - # 3
    frequency:    1.8476884140
  - # 4
    frequency:    6.2566546987
  - # 5
    frequency:    6.2566546987
  - # 6
    frequency:    6.7595705350

- q-position: [    0.1250000,    0.0000000,    0.0000000 ]
  distance:    0.0401095
  band:
  - # 1
    frequency:    1.3637596346
  - # 2
    frequency:    1.3637596346
  - # 3
    frequency:    1.9227093008
  - # 4
    frequency:    6.2499893708
  - # 5
    frequency:    6.2499893708
  - # 6
    frequency:    6.7882588379

- q-position: [    0.1300000,    0.0000000,    0.0000000 ]
  distance:    0.0417139
  band:
  - # 1
    frequency:    1.4168973302
  - # 2
    frequency:    1.4168973302
  - # 3
    frequency:    1.9974399359
  - # 4
    frequency:    6.2428366958
  - # 5
    frequency:    6.2428366958
  - # 6
    frequency:    6.8168622290

- q-position: [    0.1350000,    0.0000000,    0.0000000 ]
  distance:    0.0433183
  band:
  - # 1
    frequency:    1.4698853785
  - # 2
    frequency:    1.4698853785
  - # 3
    frequency:    2.0718605302
  - # 4
    frequency:    6.2351933547
  - # 5
    frequency:    6.2351933547
  - # 6
    frequency:    6.8452903327

- q-position: [    0.1400000,    0.0000000,    0.0000000 ]
  distance:    0.0449227
  band:
  - # 1
    frequency:    1.5227188529
  - # 2
    frequency:    1.5227188529
  - # 3
    frequency:    2.1459507667
  - # 4
    frequency:    6.2270587628
  - # 5
    frequency:    6.2270587628
  - # 6
    frequency:    6.8734570837

- q-position: [    0.1450000,    0.0000000,    0.0000000 ]
  distance:    0.0465271
  band:
  - # 1
    frequency:    1.5753924802
  - # 2
    frequency:    1.5753924802
  - # 3
    frequency:    2.2196898534
  - # 4
    frequency:    6.2184350724
  - # 5
    frequency:    6.2184350724
  - # 6
    frequency:    6.9012808941

- q-position: [    0.1500000,    0.0000000,    0.0000000 ]
  distance:    0.0481314
  band:
  - # 1
    frequency:    1.6279005914
  - # 2
    frequency:    1.6279005914
  - # 3
    frequency:    2.2930565810
  - # 4
    frequency:    6.2093271383
  - # 5
    frequency:    6.2093271383
  - # 6
    frequency:    6.9286847654

- q-position: [    0.1550000,    0.0000000,    0.0000000 ]
  distance:    0.0497358
  band:
  - # 1
    frequency:    1.6802370774
  - # 2
    frequency:    1.6802370774
  - # 3
    frequency:    2.3660293877
  - # 4
    frequency:    6.1997424471
  - # 5
    frequency:    6.1997424471
  - # 6
    frequency:    6.9555963462

- q-position: [    0.1600000,    0.0000000,    0.0000000 ]
  distance:    0.0513402
  band:
  - # 1
    frequency:    1.7323953475
  - # 2
    frequency:    1.7323953475
  - # 3
    frequency:    2.4385864290
  - # 4
    frequency:    6.1896910115
  - # 5
    frequency:    6.1896910115
  - # 6
    frequency:    6.9819479417

- q-position: [    0.1650000,    0.0000000,    0.0000000 ]
  distance:    0.0529446
  band:
  - # 1
    frequency:    1.7843682936
  - # 2
    frequency:    1.7843682936
  - # 3
    frequency:    2.5107056545
  - # 4
    frequency:    6.1791852316
  - # 5
    frequency:    6.1791852316
  - # 6
    frequency:    7.0076764767

- q-position: [    0.1700000,    0.0000000,    0.0000000 ]
  distance:    0.0545490
  band:
  - # 1
    frequency:    1.8361482597
  - # 2
    frequency:    1.8361482597
  - # 3
    frequency:    2.5823648889
  - # 4
    frequency:    6.1682397248
  - # 5
    frequency:    6.1682397248
  - # 6
    frequency:    7.0327234190

- q-position: [    0.1750000,    0.0000000,    0.0000000 ]
  distance:    0.0561534
  band:
  - # 1
    frequency:    1.8877270176
  - # 2
    frequency:    1.8877270176
  - # 3
    frequency:    2.6535419199
  - # 4
    frequency:    6.1568711269
  - # 5
    frequency:    6.1568711269
  - # 6
    frequency:    7.0570346646

- q-position: [    0.1800000,    0.0000000,    0.0000000 ]
  distance:    0.0577577
  band:
  - # 1
    frequency:    1.9390957490
  - # 2
    frequency:    1.9390957490
  - # 3
    frequency:    2.7242145906
  - # 4
    frequency:    6.1450978670
  - # 5
    frequency:    6.1450978670
  - # 6
    frequency:    7.0805603917

- q-position: [    0.1850000,    0.0000000,    0.0000000 ]
  distance:    0.0593621
  band:
  - # 1
    frequency:    1.9902450354
  - # 2
    frequency:    1.9902450354
  - # 3
    frequency:    2.7943608970
  - # 4
    frequency:    6.1329399202
  - # 5
    frequency:    6.1329399202
  - # 6
    frequency:    7.1032548862

- q-position: [    0.1900000,    0.0000000,    0.0000000 ]
  distance:    0.0609665
  band:
  - # 1
    frequency:    2.0411648552
  - # 2
    frequency:    2.0411648552
  - # 3
    frequency:    2.8639590909
  - # 4
    frequency:    6.1204185404
  - # 5
    frequency:    6.1204185404
  - # 6
    frequency:    7.1250763445

- q-position: [    0.1950000,    0.0000000,    0.0000000 ]
  distance:    0.0625709
  band:
  - # 1
    frequency:    2.0918445897
  - # 2
    frequency:    2.0918445897
  - # 3
    frequency:    2.9329877857
  - # 4
    frequency:    6.1075559778
  - # 5
    frequency:    6.1075559778
  - # 6
    frequency:    7.1459866569

- q-position: [    0.2000000,    0.0000000,    0.0000000 ]
  distance:    0.0641753
  band:
  - # 1
    frequency:    2.1422730369
  - # 2
    frequency:    2.1422730369
  - # 3
    frequency:    3.0014260675
  - # 4
    frequency:    6.0943751850
  - # 5
    frequency:    6.0943751850
  - # 6
    frequency:    7.1659511772

- q-position: [    0.2050000,    0.0000000,    0.0000000 ]
  distance:    0.0657796
  band:
  - # 1
    frequency:    2.1924384349
  - # 2
    frequency:    2.1924384349
  - # 3
    frequency:    3.0692536084
  - # 4
    frequency:    6.0808995148
  - # 5
    frequency:    6.0808995148
  - # 6
    frequency:    7.1849384818

- q-position: [    0.2100000,    0.0000000,    0.0000000 ]
  distance:    0.0673840
  band:
  - # 1
    frequency:    2.2423284940
  - # 2
    frequency:    2.2423284940
  - # 3
    frequency:    3.1364507822
  - # 4
    frequency:    6.0671524161
  - # 5
    frequency:    6.0671524161
  - # 6
    frequency:    7.2029201230

- q-position: [    0.2150000,    0.0000000,    0.0000000 ]
  distance:    0.0689884
  band:
  - # 1
    frequency:    2.2919304385
  - # 2
    frequency:    2.2919304385
  - # 3
    frequency:    3.2029987820
  - # 4
    frequency:    6.0531571295
  - # 5
    frequency:    6.0531571295
  - # 6
    frequency:    7.2198703803

- q-position: [    0.2200000,    0.0000000,    0.0000000 ]
  distance:    0.0705928
  band:
  - # 1
    frequency:    2.3412310574
  - # 2
    frequency:    2.3412310574
  - # 3
    frequency:    3.2688797391
  - # 4
    frequency:    6.0389363886
  - # 5
    frequency:    6.0389363886
  - # 6
    frequency:    7.2357660142

- q-position: [    0.2250000,    0.0000000,    0.0000000 ]
  distance:    0.0721972
  band:
  - # 1
    frequency:    2.3902167637
  - # 2
    frequency:    2.3902167637
  - # 3
    frequency:    3.3340768399
  - # 4
    frequency:    6.0245121315
  - # 5
    frequency:    6.0245121315
  - # 6
    frequency:    7.2505860247

- q-position: [    0.2300000,    0.0000000,    0.0000000 ]
  distance:    0.0738015
  band:
  - # 1
    frequency:    2.4388736632
  - # 2
    frequency:    2.4388736632
  - # 3
    frequency:    3.3985744436
  - # 4
    frequency:    6.0099052253
  - # 5
    frequency:    6.0099052253
  - # 6
    frequency:    7.2643114196

- q-position: [    0.2350000,    0.0000000,    0.0000000 ]
  distance:    0.0754059
  band:
  - # 1
    frequency:    2.4871876306
  - # 2
    frequency:    2.4871876306
  - # 3
    frequency:    3.4623581951
  - # 4
    frequency:    5.9951352083
  - # 5
    frequency:    5.9951352083
  - # 6
    frequency:    7.2769249947

- q-position: [    0.2400000,    0.0000000,    0.0000000 ]
  distance:    0.0770103
  band:
  - # 1
    frequency:    2.5351443929
  - # 2
    frequency:    2.5351443929
  - # 3
    frequency:    3.5254151353
  - # 4
    frequency:    5.9802200542
  - # 5
    frequency:    5.9802200542
  - # 6
    frequency:    7.2884111288

- q-position: [    0.2450000,    0.0000000,    0.0000000 ]
  distance:    0.0786147
  band:
  - # 1
    frequency:    2.5827296198
  - # 2
    frequency:    2.5827296198
  - # 3
    frequency:    3.5877338052
  - # 4
    frequency:    5.9651759609
  - # 5
    frequency:    5.9651759609
  - # 6
    frequency:    7.2987555972

- q-position: [    0.2500000,    0.0000000,    0.0000000 ]
  distance:    0.0802191
  band:
  - # 1
    frequency:    2.6299290182
  - # 2
    frequency:    2.6299290182
  - # 3
    frequency:    3.6493043438
  - # 4
    frequency:    5.9500171677
  - # 5
    frequency:    5.9500171677
  - # 6
    frequency:    7.3079454045

- q-position: [    0.2550000,    0.0000000,    0.0000000 ]
  distance:    0.0818235
  band:
  - # 1
    frequency:    2.6767284309
  - # 2
    frequency:    2.6767284309
  - # 3
    frequency:    3.7101185769
  - # 4
    frequency:    5.9347558032
  - # 5
    frequency:    5.9347558032
  - # 6
    frequency:    7.3159686400

- q-position: [    0.2600000,    0.0000000,    0.0000000 ]
  distance:    0.0834278
  band:
  - # 1
    frequency:    2.7231139378
  - # 2
    frequency:    2.7231139378
  - # 3
    frequency:    3.7701700961
  - # 4
    frequency:    5.9194017679
  - # 5
    frequency:    5.9194017679
  - # 6
    frequency:    7.3228143565

- q-position: [    0.2650000,    0.0000000,    0.0000000 ]
  distance:    0.0850322
  band:
  - # 1
    frequency:    2.7690719566
  - # 2
    frequency:    2.7690719566
  - # 3
    frequency:    3.8294543267
  - # 4
    frequency:    5.9039626509
  - # 5
    frequency:    5.9039626509
  - # 6
    frequency:    7.3284724746

- q-position: [    0.2700000,    0.0000000,    0.0000000 ]
  distance:    0.0866366
  band:
  - # 1
    frequency:    2.8145893423
  - # 2
    frequency:    2.8145893423
  - # 3
    frequency:    3.8879685814
  - # 4
    frequency:    5.8884436854
  - # 5
    frequency:    5.8884436854
  - # 6
    frequency:    7.3329337127

- q-position: [    0.2750000,    0.0000000,    0.0000000 ]
  distance:    0.0882410
  band:
  - # 1
    frequency:    2.8596534832
  - # 2
    frequency:    2.8596534832
  - # 3
    frequency:    3.9457121003
  - # 4
    frequency:    5.8728477414
  - # 5
    frequency:    5.8728477414
  - # 6
    frequency:    7.3361895442

- q-position: [    0.2800000,    0.0000000,    0.0000000 ]
  distance:    0.0898454
  band:
  - # 1
    frequency:    2.9042523899
  - # 2
    frequency:    2.9042523899
  - # 3
    frequency:    4.0026860741
  - # 4
    frequency:    5.8571753589
  - # 5
    frequency:    5.8571753589
  - # 6
    frequency:    7.3382321815

- q-position: [    0.2850000,    0.0000000,    0.0000000 ]
  distance:    0.0914497
  band:
  - # 1
    frequency:    2.9483747774
  - # 2
    frequency:    2.9483747774
  - # 3
    frequency:    4.0588936500
  - # 4
    frequency:    5.8414248193
  - # 5
    frequency:    5.8414248193
  - # 6
    frequency:    7.3390545873

- q-position: [    0.2900000,    0.0000000,    0.0000000 ]
  distance:    0.0930541
  band:
  - # 1
    frequency:    2.9920101352
  - # 2
    frequency:    2.9920101352
  - # 3
    frequency:    4.1143399177
  - # 4
    frequency:    5.8255922567
  - # 5
    frequency:    5.8255922567
  - # 6
    frequency:    7.3386505128

- q-position: [    0.2950000,    0.0000000,    0.0000000 ]
  distance:    0.0946585
  band:
  - # 1
    frequency:    3.0351487852
  - # 2
    frequency:    3.0351487852
  - # 3
    frequency:    4.1690318760
  - # 4
    frequency:    5.8096718071
  - # 5
    frequency:    5.8096718071
  - # 6
    frequency:    7.3370145612

- q-position: [    0.3000000,    0.0000000,    0.0000000 ]
  distance:    0.0962629
  band:
  - # 1
    frequency:    3.0777819240
  - # 2
    frequency:    3.0777819240
  - # 3
    frequency:    4.2229783774
  - # 4
    frequency:    5.7936557958
  - # 5
    frequency:    5.7936557958
  - # 6
    frequency:    7.3341422780

- q-position: [    0.3050000,    0.0000000,    0.0000000 ]
  distance:    0.0978673
  band:
  - # 1
    frequency:    3.1199016473
  - # 2
    frequency:    3.1199016473
  - # 3
    frequency:    4.2761900497
  - # 4
    frequency:    5.7775349594
  - # 5
    frequency:    5.7775349594
  - # 6
    frequency:    7.3300302635

- q-position: [    0.3100000,    0.0000000,    0.0000000 ]
  distance:    0.0994717
  band:
  - # 1
    frequency:    3.1615009546
  - # 2
    frequency:    3.1615009546
  - # 3
    frequency:    4.3286791944
  - # 4
    frequency:    5.7612987024
  - # 5
    frequency:    5.7612987024
  - # 6
    frequency:    7.3246763096

- q-position: [    0.3150000,    0.0000000,    0.0000000 ]
  distance:    0.1010760
  band:
  - # 1
    frequency:    3.2025737316
  - # 2
    frequency:    3.2025737316
  - # 3
    frequency:    4.3804596604
  - # 4
    frequency:    5.7449353851
  - # 5
    frequency:    5.7449353851
  - # 6
    frequency:    7.3180795574

- q-position: [    0.3200000,    0.0000000,    0.0000000 ]
  distance:    0.1026804
  band:
  - # 1
    frequency:    3.2431147086
  - # 2
    frequency:    3.2431147086
  - # 3
    frequency:    4.4315466914
  - # 4
    frequency:    5.7284326408
  - # 5
    frequency:    5.7284326408
  - # 6
    frequency:    7.3102406740

- q-position: [    0.3250000,    0.0000000,    0.0000000 ]
  distance:    0.1042848
  band:
  - # 1
    frequency:    3.2831193932
  - # 2
    frequency:    3.2831193932
  - # 3
    frequency:    4.4819567480
  - # 4
    frequency:    5.7117777192
  - # 5
    frequency:    5.7117777192
  - # 6
    frequency:    7.3011620483

- q-position: [    0.3300000,    0.0000000,    0.0000000 ]
  distance:    0.1058892
  band:
  - # 1
    frequency:    3.3225839749
  - # 2
    frequency:    3.3225839749
  - # 3
    frequency:    4.5317073017
  - # 4
    frequency:    5.6949578539
  - # 5
    frequency:    5.6949578539
  - # 6
    frequency:    7.2908480033

- q-position: [    0.3350000,    0.0000000,    0.0000000 ]
  distance:    0.1074936
  band:
  - # 1
    frequency:    3.3615052001
  - # 2
    frequency:    3.3615052001
  - # 3
    frequency:    4.5808166003
  - # 4
    frequency:    5.6779606505
  - # 5
    frequency:    5.6779606505
  - # 6
    frequency:    7.2793050237

- q-position: [    0.3400000,    0.0000000,    0.0000000 ]
  distance:    0.1090979
  band:
  - # 1
    frequency:    3.3998802169
  - # 2
    frequency:    3.3998802169
  - # 3
    frequency:    4.6293034047
  - # 4
    frequency:    5.6607744934
  - # 5
    frequency:    5.6607744934
  - # 6
    frequency:    7.2665419984

- q-position: [    0.3450000,    0.0000000,    0.0000000 ]
  distance:    0.1107023
  band:
  - # 1
    frequency:    3.4377063861
  - # 2
    frequency:    3.4377063861
  - # 3
    frequency:    4.6771866938
  - # 4
    frequency:    5.6433889680
  - # 5
    frequency:    5.6433889680
  - # 6
    frequency:    7.2525704766

- q-position: [    0.3500000,    0.0000000,    0.0000000 ]
  distance:    0.1123067
  band:
  - # 1
    frequency:    3.4749810590
  - # 2
    frequency:    3.4749810590
  - # 3
    frequency:    4.7244853369
  - # 4
    frequency:    5.6257952971
  - # 5
    frequency:    5.6257952971
  - # 6
    frequency:    7.2374049384

- q-position: [    0.3550000,    0.0000000,    0.0000000 ]
  distance:    0.1139111
  band:
  - # 1
    frequency:    3.5117013190
  - # 2
    frequency:    3.5117013190
  - # 3
    frequency:    4.7712177313
  - # 4
    frequency:    5.6079867889
  - # 5
    frequency:    5.6079867889
  - # 6
    frequency:    7.2210630797

- q-position: [    0.3600000,    0.0000000,    0.0000000 ]
  distance:    0.1155155
  band:
  - # 1
    frequency:    3.5478636851
  - # 2
    frequency:    3.5478636851
  - # 3
    frequency:    4.8174014011
  - # 4
    frequency:    5.5899592953
  - # 5
    frequency:    5.5899592953
  - # 6
    frequency:    7.2035661144

- q-position: [    0.3650000,    0.0000000,    0.0000000 ]
  distance:    0.1171198
  band:
  - # 1
    frequency:    3.5834637770
  - # 2
    frequency:    3.5834637770
  - # 3
    frequency:    4.8630525543
  - # 4
    frequency:    5.5717116808
  - # 5
    frequency:    5.5717116808
  - # 6
    frequency:    7.1849390955

- q-position: [    0.3700000,    0.0000000,    0.0000000 ]
  distance:    0.1187242
  band:
  - # 1
    frequency:    3.6184959374
  - # 2
    frequency:    3.6184959374
  - # 3
    frequency:    4.9081855924
  - # 4
    frequency:    5.5532463010
  - # 5
    frequency:    5.5532463010
  - # 6
    frequency:    7.1652112608

- q-position: [    0.3750000,    0.0000000,    0.0000000 ]
  distance:    0.1203286
  band:
  - # 1
    frequency:    3.6529528112
  - # 2
    frequency:    3.6529528112
  - # 3
    frequency:    4.9528125657
  - # 4
    frequency:    5.5345694917
  - # 5
    frequency:    5.5345694917
  - # 6
    frequency:    7.1444164087

- q-position: [    0.3800000,    0.0000000,    0.0000000 ]
  distance:    0.1219330
  band:
  - # 1
    frequency:    3.6868248772
  - # 2
    frequency:    3.6868248772
  - # 3
    frequency:    4.9969425664
  - # 4
    frequency:    5.5156920704
  - # 5
    frequency:    5.5156920704
  - # 6
    frequency:    7.1225933138

- q-position: [    0.3850000,    0.0000000,    0.0000000 ]
  distance:    0.1235374
  band:
  - # 1
    frequency:    3.7200999312
  - # 2
    frequency:    3.7200999312
  - # 3
    frequency:    5.0405810470
  - # 4
    frequency:    5.4966298520
  - # 5
    frequency:    5.4966298520
  - # 6
    frequency:    7.0997861919

- q-position: [    0.3900000,    0.0000000,    0.0000000 ]
  distance:    0.1251418
  band:
  - # 1
    frequency:    3.7527625155
  - # 2
    frequency:    3.7527625155
  - # 3
    frequency:    5.0837290511
  - # 4
    frequency:    5.4774041824
  - # 5
    frequency:    5.4774041824
  - # 6
    frequency:    7.0760452323

- q-position: [    0.3950000,    0.0000000,    0.0000000 ]
  distance:    0.1267461
  band:
  - # 1
    frequency:    3.7847932946
  - # 2
    frequency:    3.7847932946
  - # 3
    frequency:    5.1263823376
  - # 4
    frequency:    5.4580424918
  - # 5
    frequency:    5.4580424918
  - # 6
    frequency:    7.0514272131

- q-position: [    0.4000000,    0.0000000,    0.0000000 ]
  distance:    0.1283505
  band:
  - # 1
    frequency:    3.8161683721
  - # 2
    frequency:    3.8161683721
  - # 3
    frequency:    5.1685303753
  - # 4
    frequency:    5.4385788723
  - # 5
    frequency:    5.4385788723
  - # 6
    frequency:    7.0259962268

- q-position: [    0.4050000,    0.0000000,    0.0000000 ]
  distance:    0.1299549
  band:
  - # 1
    frequency:    3.8468585499
  - # 2
    frequency:    3.8468585499
  - # 3
    frequency:    5.2101551800
  - # 4
    frequency:    5.4190546819
  - # 5
    frequency:    5.4190546819
  - # 6
    frequency:    6.9998245453

- q-position: [    0.4100000,    0.0000000,    0.0000000 ]
  distance:    0.1315593
  band:
  - # 1
    frequency:    3.8768285302
  - # 2
    frequency:    3.8768285302
  - # 3
    frequency:    5.2512299574
  - # 4
    frequency:    5.3995191746
  - # 5
    frequency:    5.3995191746
  - # 6
    frequency:    6.9729936612

- q-position: [    0.4150000,    0.0000000,    0.0000000 ]
  distance:    0.1331637
  band:
  - # 1
    frequency:    3.9060360642
  - # 2
    frequency:    3.9060360642
  - # 3
    frequency:    5.2917175095
  - # 4
    frequency:    5.3800301567
  - # 5
    frequency:    5.3800301567
  - # 6
    frequency:    6.9455955533

- q-position: [    0.4200000,    0.0000000,    0.0000000 ]
  distance:    0.1347680
  band:
  - # 1
    frequency:    3.9344310601
  - # 2
    frequency:    3.9344310601
  - # 3
    frequency:    5.3315683508
  - # 4
    frequency:    5.3606546583
  - # 5
    frequency:    5.3606546583
  - # 6
    frequency:    6.9177342285

- q-position: [    0.4250000,    0.0000000,    0.0000000 ]
  distance:    0.1363724
  band:
  - # 1
    frequency:    3.9619546675
  - # 2
    frequency:    3.9619546675
  - # 3
    frequency:    5.3414696069
  - # 4
    frequency:    5.3414696069
  - # 5
    frequency:    5.3707184765
  - # 6
    frequency:    6.8895276056

- q-position: [    0.4300000,    0.0000000,    0.0000000 ]
  distance:    0.1379768
  band:
  - # 1
    frequency:    3.9885383712
  - # 2
    frequency:    3.9885383712
  - # 3
    frequency:    5.3225624738
  - # 4
    frequency:    5.3225624738
  - # 5
    frequency:    5.4090867144
  - # 6
    frequency:    6.8611098074

- q-position: [    0.4350000,    0.0000000,    0.0000000 ]
  distance:    0.1395812
  band:
  - # 1
    frequency:    4.0141031420
  - # 2
    frequency:    4.0141031420
  - # 3
    frequency:    5.3040318483
  - # 4
    frequency:    5.3040318483
  - # 5
    frequency:    5.4465715971
  - # 6
    frequency:    6.8326339317

- q-position: [    0.4400000,    0.0000000,    0.0000000 ]
  distance:    0.1411856
  band:
  - # 1
    frequency:    4.0385587174
  - # 2
    frequency:    4.0385587174
  - # 3
    frequency:    5.2859878725
  - # 4
    frequency:    5.2859878725
  - # 5
    frequency:    5.4830477036
  - # 6
    frequency:    6.8042753534
