216  
2    

1    
  0.0100000000000000   0.0000000000000000   0.0000000000000000
  -0.0287803348   -0.0000000000   -0.0000000000
   0.0005563765   -0.0000000000   -0.0000000000
   0.0007308126   -0.0000000000   -0.0000000000
   0.0000831525   -0.0000031270   -0.0000000000
   0.0000049241    0.0000238296   -0.0000000000
   0.0000690617   -0.0001563846   -0.0000000000
   0.0000831525    0.0000031270   -0.0000000000
   0.0000049241   -0.0000238296   -0.0000000000
   0.0000690617    0.0001563846   -0.0000000000
   0.0000831525   -0.0000000000   -0.0000031270
   0.0000049241   -0.0000000000    0.0000238296
   0.0000690617   -0.0000000000   -0.0001563846
   0.0000185070   -0.0000474646   -0.0000474646
  -0.0000396174   -0.0000222181   -0.0000222181
   0.0000974495   -0.0000181663   -0.0000181663
   0.0000185070    0.0000474646   -0.0000474646
  -0.0000396174    0.0000222181   -0.0000222181
   0.0000974495    0.0000181663   -0.0000181663
   0.0000831525   -0.0000000000    0.0000031270
   0.0000049241   -0.0000000000   -0.0000238296
   0.0000690617   -0.0000000000    0.0001563846
   0.0000185070   -0.0000474646    0.0000474646
  -0.0000396174   -0.0000222181    0.0000222181
   0.0000974495   -0.0000181663    0.0000181663
   0.0000185070    0.0000474646    0.0000474646
  -0.0000396174    0.0000222181    0.0000222181
   0.0000974495    0.0000181663    0.0000181663
  -0.0003898711    0.0000242007    0.0000242007
   0.0001004812    0.0000814601    0.0000814601
   0.0002582994   -0.0001652578   -0.0001652578
   0.0000376430   -0.0000000000   -0.0000725846
  -0.0001264205   -0.0000000000   -0.0000617802
   0.0000485003   -0.0000000000    0.0000119380
  -0.0003898711   -0.0000242007    0.0000242007
   0.0001004812   -0.0000814601    0.0000814601
   0.0002582994    0.0001652578   -0.0001652578
   0.0000376430   -0.0000725846   -0.0000000000
  -0.0001264205   -0.0000617802   -0.0000000000
   0.0000485003    0.0000119380   -0.0000000000
  -0.0000120696   -0.0000000000   -0.0000000000
  -0.0000090746   -0.0000000000   -0.0000000000
   0.0001531275   -0.0000000000   -0.0000000000
   0.0000376430    0.0000725846   -0.0000000000
  -0.0001264205    0.0000617802   -0.0000000000
   0.0000485003   -0.0000119380   -0.0000000000
  -0.0003898711    0.0000242007   -0.0000242007
   0.0001004812    0.0000814601   -0.0000814601
   0.0002582994   -0.0001652578    0.0001652578
   0.0000376430   -0.0000000000    0.0000725846
  -0.0001264205   -0.0000000000    0.0000617802
   0.0000485003   -0.0000000000   -0.0000119380
  -0.0003898711   -0.0000242007   -0.0000242007
   0.0001004812   -0.0000814601   -0.0000814601
   0.0002582994    0.0001652578    0.0001652578
   0.0004806495   -0.0000000000    0.0014690774
   0.0001338075   -0.0000000000    0.0000967955
   0.0004043170   -0.0000000000   -0.0013146668
  -0.0000357141    0.0000530951    0.0000235057
  -0.0000063443   -0.0000283096    0.0000132696
  -0.0000695246   -0.0001302478   -0.0000606384
  -0.0000357141   -0.0000530951    0.0000235057
  -0.0000063443    0.0000283096    0.0000132696
  -0.0000695246    0.0001302478   -0.0000606384
   0.0000355012   -0.0000000000   -0.0000000000
  -0.0000118094   -0.0000000000   -0.0000000000
  -0.0000686683   -0.0000000000   -0.0000000000
   0.0000012589    0.0000053367   -0.0000000000
   0.0000663798   -0.0000770373   -0.0000000000
  -0.0000645620    0.0000145464   -0.0000000000
   0.0000012589   -0.0000053367   -0.0000000000
   0.0000663798    0.0000770373   -0.0000000000
  -0.0000645620   -0.0000145464   -0.0000000000
   0.0004806495   -0.0000000000   -0.0014690774
   0.0001338075   -0.0000000000   -0.0000967955
   0.0004043170   -0.0000000000    0.0013146668
  -0.0000357141    0.0000530951   -0.0000235057
  -0.0000063443   -0.0000283096   -0.0000132696
  -0.0000695246   -0.0001302478    0.0000606384
  -0.0000357141   -0.0000530951   -0.0000235057
  -0.0000063443    0.0000283096   -0.0000132696
  -0.0000695246    0.0001302478    0.0000606384
   0.0004806495    0.0014690774   -0.0000000000
   0.0001338075    0.0000967955   -0.0000000000
   0.0004043170   -0.0013146668   -0.0000000000
   0.0000355012   -0.0000000000   -0.0000000000
  -0.0000118094   -0.0000000000   -0.0000000000
  -0.0000686683   -0.0000000000   -0.0000000000
   0.0004806495   -0.0014690774   -0.0000000000
   0.0001338075   -0.0000967955   -0.0000000000
   0.0004043170    0.0013146668   -0.0000000000
  -0.0000357141    0.0000235057    0.0000530951
  -0.0000063443    0.0000132696   -0.0000283096
  -0.0000695246   -0.0000606384   -0.0001302478
   0.0000012589   -0.0000000000    0.0000053367
   0.0000663798   -0.0000000000   -0.0000770373
  -0.0000645620   -0.0000000000    0.0000145464
  -0.0000357141   -0.0000235057    0.0000530951
  -0.0000063443   -0.0000132696   -0.0000283096
  -0.0000695246    0.0000606384   -0.0001302478
  -0.0000357141    0.0000235057   -0.0000530951
  -0.0000063443    0.0000132696    0.0000283096
  -0.0000695246   -0.0000606384    0.0001302478
   0.0000012589   -0.0000000000   -0.0000053367
   0.0000663798   -0.0000000000    0.0000770373
  -0.0000645620   -0.0000000000   -0.0000145464
  -0.0000357141   -0.0000235057   -0.0000530951
  -0.0000063443   -0.0000132696    0.0000283096
  -0.0000695246    0.0000606384    0.0001302478
  -0.0000122640   -0.0003697259   -0.0003697259
  -0.0000800744    0.0000209957    0.0000209957
   0.0000191126    0.0003787944    0.0003787944
   0.0000133986   -0.0000000000   -0.0000097003
  -0.0000470772   -0.0000000000    0.0000083801
   0.0000170844   -0.0000000000   -0.0000009077
  -0.0000122640    0.0003697259   -0.0003697259
  -0.0000800744   -0.0000209957    0.0000209957
   0.0000191126   -0.0003787944    0.0003787944
   0.0000133986   -0.0000097003   -0.0000000000
  -0.0000470772    0.0000083801   -0.0000000000
   0.0000170844   -0.0000009077   -0.0000000000
  -0.0000473791   -0.0000000000   -0.0000000000
  -0.0000066084   -0.0000000000   -0.0000000000
   0.0000114790   -0.0000000000   -0.0000000000
   0.0000133986    0.0000097003   -0.0000000000
  -0.0000470772   -0.0000083801   -0.0000000000
   0.0000170844    0.0000009077   -0.0000000000
  -0.0000122640   -0.0003697259    0.0003697259
  -0.0000800744    0.0000209957   -0.0000209957
   0.0000191126    0.0003787944   -0.0003787944
   0.0000133986   -0.0000000000    0.0000097003
  -0.0000470772   -0.0000000000   -0.0000083801
   0.0000170844   -0.0000000000    0.0000009077
  -0.0000122640    0.0003697259    0.0003697259
  -0.0000800744   -0.0000209957   -0.0000209957
   0.0000191126   -0.0003787944   -0.0003787944
   0.0107747297   -0.0000000000   -0.0000000000
  -0.0002067342   -0.0000000000   -0.0000000000
   0.0101727832   -0.0000000000   -0.0000000000
   0.0000700906   -0.0000405591   -0.0000000000
  -0.0000601700   -0.0000182409   -0.0000000000
   0.0000805826    0.0000424851   -0.0000000000
   0.0000700906    0.0000405591   -0.0000000000
  -0.0000601700    0.0000182409   -0.0000000000
   0.0000805826   -0.0000424851   -0.0000000000
   0.0000700906   -0.0000000000   -0.0000405591
  -0.0000601700   -0.0000000000   -0.0000182409
   0.0000805826   -0.0000000000    0.0000424851
   0.0000171575   -0.0000254279   -0.0000254279
  -0.0000216002    0.0000113044    0.0000113044
   0.0000298223    0.0000479550    0.0000479550
   0.0000171575    0.0000254279   -0.0000254279
  -0.0000216002   -0.0000113044    0.0000113044
   0.0000298223   -0.0000479550    0.0000479550
   0.0000700906   -0.0000000000    0.0000405591
  -0.0000601700   -0.0000000000    0.0000182409
   0.0000805826   -0.0000000000   -0.0000424851
   0.0000171575   -0.0000254279    0.0000254279
  -0.0000216002    0.0000113044   -0.0000113044
   0.0000298223    0.0000479550   -0.0000479550
   0.0000171575    0.0000254279    0.0000254279
  -0.0000216002   -0.0000113044   -0.0000113044
   0.0000298223   -0.0000479550   -0.0000479550
   0.0011209754    0.0000167932   -0.0000000000
  -0.0003720436   -0.0003242117   -0.0000000000
  -0.0003824249    0.0003518017   -0.0000000000
   0.0000004456   -0.0000000000   -0.0000000000
  -0.0000584857   -0.0000000000   -0.0000000000
   0.0000069489   -0.0000000000   -0.0000000000
   0.0011209754   -0.0000167932   -0.0000000000
  -0.0003720436    0.0003242117   -0.0000000000
  -0.0003824249   -0.0003518017   -0.0000000000
   0.0000470196   -0.0000093331    0.0000269949
  -0.0000504317   -0.0000228142   -0.0000588478
  -0.0000374602    0.0000098978    0.0000478667
   0.0000049579   -0.0000000000   -0.0000000478
  -0.0000080866   -0.0000000000   -0.0000235475
   0.0000105969   -0.0000000000    0.0000201179
   0.0000470196    0.0000093331    0.0000269949
  -0.0000504317    0.0000228142   -0.0000588478
  -0.0000374602   -0.0000098978    0.0000478667
   0.0000470196   -0.0000093331   -0.0000269949
  -0.0000504317   -0.0000228142    0.0000588478
  -0.0000374602    0.0000098978   -0.0000478667
   0.0000049579   -0.0000000000    0.0000000478
  -0.0000080866   -0.0000000000    0.0000235475
   0.0000105969   -0.0000000000   -0.0000201179
   0.0000470196    0.0000093331   -0.0000269949
  -0.0000504317    0.0000228142    0.0000588478
  -0.0000374602   -0.0000098978   -0.0000478667
   0.0011209754   -0.0000000000    0.0000167932
  -0.0003720436   -0.0000000000   -0.0003242117
  -0.0003824249   -0.0000000000    0.0003518017
   0.0000470196    0.0000269949   -0.0000093331
  -0.0000504317   -0.0000588478   -0.0000228142
  -0.0000374602    0.0000478667    0.0000098978
   0.0000470196   -0.0000269949   -0.0000093331
  -0.0000504317    0.0000588478   -0.0000228142
  -0.0000374602   -0.0000478667    0.0000098978
   0.0000004456   -0.0000000000   -0.0000000000
  -0.0000584857   -0.0000000000   -0.0000000000
   0.0000069489   -0.0000000000   -0.0000000000
   0.0000049579   -0.0000000478   -0.0000000000
  -0.0000080866   -0.0000235475   -0.0000000000
   0.0000105969    0.0000201179   -0.0000000000
   0.0000049579    0.0000000478   -0.0000000000
  -0.0000080866    0.0000235475   -0.0000000000
   0.0000105969   -0.0000201179   -0.0000000000
   0.0011209754   -0.0000000000   -0.0000167932
  -0.0003720436   -0.0000000000    0.0003242117
  -0.0003824249   -0.0000000000   -0.0003518017
   0.0000470196    0.0000269949    0.0000093331
  -0.0000504317   -0.0000588478    0.0000228142
  -0.0000374602    0.0000478667   -0.0000098978
   0.0000470196   -0.0000269949    0.0000093331
  -0.0000504317    0.0000588478    0.0000228142
  -0.0000374602   -0.0000478667   -0.0000098978

109  
  0.0100000000000000   0.0000000000000000   0.0000000000000000
   0.0000449031   -0.0004326024   -0.0004326024
   0.0000342389    0.0004028484    0.0004028484
  -0.0000755746    0.0000652130    0.0000652130
   0.0000449031    0.0004326024   -0.0004326024
   0.0000342389   -0.0004028484    0.0004028484
  -0.0000755746   -0.0000652130    0.0000652130
   0.0000436992   -0.0000000000   -0.0000207256
   0.0000864561   -0.0000000000    0.0001200365
   0.0000082270   -0.0000000000    0.0000231655
   0.0000449031   -0.0004326024    0.0004326024
   0.0000342389    0.0004028484   -0.0004028484
  -0.0000755746    0.0000652130   -0.0000652130
   0.0000449031    0.0004326024    0.0004326024
   0.0000342389   -0.0004028484   -0.0004028484
  -0.0000755746   -0.0000652130   -0.0000652130
   0.0000436992   -0.0000000000    0.0000207256
   0.0000864561   -0.0000000000   -0.0001200365
   0.0000082270   -0.0000000000   -0.0000231655
   0.0000436992   -0.0000207256   -0.0000000000
   0.0000864561    0.0001200365   -0.0000000000
   0.0000082270    0.0000231655   -0.0000000000
   0.0000436992    0.0000207256   -0.0000000000
   0.0000864561   -0.0001200365   -0.0000000000
   0.0000082270   -0.0000231655   -0.0000000000
   0.0000220266   -0.0000000000   -0.0000000000
   0.0001070344   -0.0000000000   -0.0000000000
  -0.0000636066   -0.0000000000   -0.0000000000
   0.0108754700   -0.0000000000   -0.0000000000
   0.0111976180   -0.0000000000   -0.0000000000
  -0.0001976073   -0.0000000000   -0.0000000000
   0.0001833618    0.0001896607   -0.0000000000
   0.0001597165   -0.0003582329   -0.0000000000
  -0.0000746494   -0.0000062110   -0.0000000000
   0.0001833618   -0.0001896607   -0.0000000000
   0.0001597165    0.0003582329   -0.0000000000
  -0.0000746494    0.0000062110   -0.0000000000
   0.0001833618   -0.0000000000    0.0001896607
   0.0001597165   -0.0000000000   -0.0003582329
  -0.0000746494   -0.0000000000   -0.0000062110
   0.0000882431    0.0000232861    0.0000232861
   0.0001278193    0.0000037339    0.0000037339
  -0.0000650507    0.0000029684    0.0000029684
   0.0000882431   -0.0000232861    0.0000232861
   0.0001278193   -0.0000037339    0.0000037339
  -0.0000650507   -0.0000029684    0.0000029684
   0.0001833618   -0.0000000000   -0.0001896607
   0.0001597165   -0.0000000000    0.0003582329
  -0.0000746494   -0.0000000000    0.0000062110
   0.0000882431    0.0000232861   -0.0000232861
   0.0001278193    0.0000037339   -0.0000037339
  -0.0000650507    0.0000029684   -0.0000029684
   0.0000882431   -0.0000232861   -0.0000232861
   0.0001278193   -0.0000037339   -0.0000037339
  -0.0000650507   -0.0000029684   -0.0000029684
   0.0007872485   -0.0000780207   -0.0000000000
  -0.0002731263    0.0000036948   -0.0000000000
  -0.0004045012   -0.0001078254   -0.0000000000
   0.0007872485    0.0000780207   -0.0000000000
  -0.0002731263   -0.0000036948   -0.0000000000
  -0.0004045012    0.0001078254   -0.0000000000
   0.0000231107   -0.0000000000   -0.0000000000
  -0.0001079819   -0.0000000000   -0.0000000000
   0.0000080645   -0.0000000000   -0.0000000000
  -0.0000123355    0.0000917527   -0.0000474050
  -0.0000713711    0.0000011429   -0.0000100885
  -0.0000160960    0.0000819157    0.0000623660
  -0.0000123355   -0.0000917527   -0.0000474050
  -0.0000713711   -0.0000011429   -0.0000100885
  -0.0000160960   -0.0000819157    0.0000623660
   0.0000937719   -0.0000000000    0.0000082538
  -0.0000743002   -0.0000000000    0.0000137210
  -0.0000865765   -0.0000000000    0.0000617331
  -0.0000123355    0.0000917527    0.0000474050
  -0.0000713711    0.0000011429    0.0000100885
  -0.0000160960    0.0000819157   -0.0000623660
  -0.0000123355   -0.0000917527    0.0000474050
  -0.0000713711   -0.0000011429    0.0000100885
  -0.0000160960   -0.0000819157   -0.0000623660
   0.0000937719   -0.0000000000   -0.0000082538
  -0.0000743002   -0.0000000000   -0.0000137210
  -0.0000865765   -0.0000000000   -0.0000617331
   0.0007872485   -0.0000000000   -0.0000780207
  -0.0002731263   -0.0000000000    0.0000036948
  -0.0004045012   -0.0000000000   -0.0001078254
  -0.0000123355   -0.0000474050    0.0000917527
  -0.0000713711   -0.0000100885    0.0000011429
  -0.0000160960    0.0000623660    0.0000819157
  -0.0000123355    0.0000474050    0.0000917527
  -0.0000713711    0.0000100885    0.0000011429
  -0.0000160960   -0.0000623660    0.0000819157
   0.0007872485   -0.0000000000    0.0000780207
  -0.0002731263   -0.0000000000   -0.0000036948
  -0.0004045012   -0.0000000000    0.0001078254
  -0.0000123355   -0.0000474050   -0.0000917527
  -0.0000713711   -0.0000100885   -0.0000011429
  -0.0000160960    0.0000623660   -0.0000819157
  -0.0000123355    0.0000474050   -0.0000917527
  -0.0000713711    0.0000100885   -0.0000011429
  -0.0000160960   -0.0000623660   -0.0000819157
   0.0000231107   -0.0000000000   -0.0000000000
  -0.0001079819   -0.0000000000   -0.0000000000
   0.0000080645   -0.0000000000   -0.0000000000
   0.0000937719    0.0000082538   -0.0000000000
  -0.0000743002    0.0000137210   -0.0000000000
  -0.0000865765    0.0000617331   -0.0000000000
   0.0000937719   -0.0000082538   -0.0000000000
  -0.0000743002   -0.0000137210   -0.0000000000
  -0.0000865765   -0.0000617331   -0.0000000000
  -0.0340186938   -0.0000000000   -0.0000000000
   0.0005887644   -0.0000000000   -0.0000000000
   0.0005109157   -0.0000000000   -0.0000000000
  -0.0002065126   -0.0000263966   -0.0000000000
   0.0001572078    0.0001264302   -0.0000000000
   0.0001578932   -0.0001589737   -0.0000000000
  -0.0002065126    0.0000263966   -0.0000000000
   0.0001572078   -0.0001264302   -0.0000000000
   0.0001578932    0.0001589737   -0.0000000000
  -0.0002065126   -0.0000000000   -0.0000263966
   0.0001572078   -0.0000000000    0.0001264302
   0.0001578932   -0.0000000000   -0.0001589737
  -0.0000322644   -0.0000036995   -0.0000036995
  -0.0000178777    0.0000366309    0.0000366309
  -0.0000100059   -0.0000086680   -0.0000086680
  -0.0000322644    0.0000036995   -0.0000036995
  -0.0000178777   -0.0000366309    0.0000366309
  -0.0000100059    0.0000086680   -0.0000086680
  -0.0002065126   -0.0000000000    0.0000263966
   0.0001572078   -0.0000000000   -0.0001264302
   0.0001578932   -0.0000000000    0.0001589737
  -0.0000322644   -0.0000036995    0.0000036995
  -0.0000178777    0.0000366309   -0.0000366309
  -0.0000100059   -0.0000086680    0.0000086680
  -0.0000322644    0.0000036995    0.0000036995
  -0.0000178777   -0.0000366309   -0.0000366309
  -0.0000100059    0.0000086680    0.0000086680
  -0.0006005662   -0.0000150128   -0.0000150128
   0.0002014093   -0.0001311916   -0.0001311916
   0.0002071710    0.0000963039    0.0000963039
  -0.0006005662    0.0000150128   -0.0000150128
   0.0002014093    0.0001311916   -0.0001311916
   0.0002071710   -0.0000963039    0.0000963039
  -0.0000162112   -0.0000000000   -0.0000155331
   0.0000271752   -0.0000000000   -0.0000032452
   0.0000288033   -0.0000000000    0.0000034479
  -0.0006005662   -0.0000150128    0.0000150128
   0.0002014093   -0.0001311916    0.0001311916
   0.0002071710    0.0000963039   -0.0000963039
  -0.0006005662    0.0000150128    0.0000150128
   0.0002014093    0.0001311916    0.0001311916
   0.0002071710   -0.0000963039   -0.0000963039
  -0.0000162112   -0.0000000000    0.0000155331
   0.0000271752   -0.0000000000    0.0000032452
   0.0000288033   -0.0000000000   -0.0000034479
  -0.0000162112   -0.0000155331   -0.0000000000
   0.0000271752   -0.0000032452   -0.0000000000
   0.0000288033    0.0000034479   -0.0000000000
  -0.0000162112    0.0000155331   -0.0000000000
   0.0000271752    0.0000032452   -0.0000000000
   0.0000288033   -0.0000034479   -0.0000000000
  -0.0000348409   -0.0000000000   -0.0000000000
   0.0000333661   -0.0000000000   -0.0000000000
   0.0000396177   -0.0000000000   -0.0000000000
   0.0013826907   -0.0000000000    0.0019783347
   0.0013870120   -0.0000000000   -0.0021262988
   0.0001339278   -0.0000000000   -0.0000116536
  -0.0000479471   -0.0001169933    0.0000864207
  -0.0000469527    0.0000833920   -0.0001025873
   0.0000648571    0.0000052606   -0.0000088112
  -0.0000479471    0.0001169933    0.0000864207
  -0.0000469527   -0.0000833920   -0.0001025873
   0.0000648571   -0.0000052606   -0.0000088112
   0.0013826907   -0.0000000000   -0.0019783347
   0.0013870120   -0.0000000000    0.0021262988
   0.0001339278   -0.0000000000    0.0000116536
  -0.0000479471   -0.0001169933   -0.0000864207
  -0.0000469527    0.0000833920    0.0001025873
   0.0000648571    0.0000052606    0.0000088112
  -0.0000479471    0.0001169933   -0.0000864207
  -0.0000469527   -0.0000833920    0.0001025873
   0.0000648571   -0.0000052606    0.0000088112
  -0.0000391584   -0.0000000000   -0.0000000000
  -0.0000327221   -0.0000000000   -0.0000000000
   0.0000177058   -0.0000000000   -0.0000000000
  -0.0000082431   -0.0000213417   -0.0000000000
  -0.0000031279    0.0000057807   -0.0000000000
   0.0000069640    0.0000026782   -0.0000000000
  -0.0000082431    0.0000213417   -0.0000000000
  -0.0000031279   -0.0000057807   -0.0000000000
   0.0000069640   -0.0000026782   -0.0000000000
   0.0013826907    0.0019783347   -0.0000000000
   0.0013870120   -0.0021262988   -0.0000000000
   0.0001339278   -0.0000116536   -0.0000000000
   0.0013826907   -0.0019783347   -0.0000000000
   0.0013870120    0.0021262988   -0.0000000000
   0.0001339278    0.0000116536   -0.0000000000
  -0.0000391584   -0.0000000000   -0.0000000000
  -0.0000327221   -0.0000000000   -0.0000000000
   0.0000177058   -0.0000000000   -0.0000000000
  -0.0000479471    0.0000864207   -0.0001169933
  -0.0000469527   -0.0001025873    0.0000833920
   0.0000648571   -0.0000088112    0.0000052606
  -0.0000479471   -0.0000864207   -0.0001169933
  -0.0000469527    0.0001025873    0.0000833920
   0.0000648571    0.0000088112    0.0000052606
  -0.0000082431   -0.0000000000   -0.0000213417
  -0.0000031279   -0.0000000000    0.0000057807
   0.0000069640   -0.0000000000    0.0000026782
  -0.0000479471    0.0000864207    0.0001169933
  -0.0000469527   -0.0001025873   -0.0000833920
   0.0000648571   -0.0000088112   -0.0000052606
  -0.0000479471   -0.0000864207    0.0001169933
  -0.0000469527    0.0001025873   -0.0000833920
   0.0000648571    0.0000088112   -0.0000052606
  -0.0000082431   -0.0000000000    0.0000213417
  -0.0000031279   -0.0000000000   -0.0000057807
   0.0000069640   -0.0000000000   -0.0000026782
