mesh: [    41,    41,    41 ]
nqpoint: 1771   
reciprocal_lattice:
- [  -0.18525802,   0.18525802,   0.18525802 ] # a*
- [   0.18525802,  -0.18525802,   0.18525802 ] # b*
- [   0.18525802,   0.18525802,  -0.18525802 ] # c*
natom:   2      
lattice:
- [     0.000000000000000,     2.698938522500000,     2.698938522500000 ] # a
- [     2.698938522500000,     0.000000000000000,     2.698938522500000 ] # b
- [     2.698938522500000,     2.698938522500000,     0.000000000000000 ] # c
points:
- symbol: Na # 1
  coordinates: [  0.000000000000000,  0.000000000000000,  0.000000000000000 ]
  mass: 22.989769
- symbol: Cl # 2
  coordinates: [  0.500000000000000,  0.500000000000000,  0.500000000000000 ]
  mass: 35.453000
phonon:
- q-position: [    0.0000000,    0.0000000,    0.0000000 ]
  weight: 1    
  band:
  - # 1
    frequency:     0.0000001412
  - # 2
    frequency:     0.0000001832
  - # 3
    frequency:     0.0000002036
  - # 4
    frequency:     6.3116764801
  - # 5
    frequency:     6.3116764801
  - # 6
    frequency:     6.3116764801

- q-position: [    0.0243902,    0.0000000,    0.0000000 ]
  weight: 8    
  band:
  - # 1
    frequency:     0.2695924039
  - # 2
    frequency:     0.2695924039
  - # 3
    frequency:     0.3791793961
  - # 4
    frequency:     6.3105734522
  - # 5
    frequency:     6.3105734522
  - # 6
    frequency:     6.3351012059

- q-position: [    0.0487805,    0.0000000,    0.0000000 ]
  weight: 8    
  band:
  - # 1
    frequency:     0.5382536522
  - # 2
    frequency:     0.5382536522
  - # 3
    frequency:     0.7575776153
  - # 4
    frequency:     6.3065072176
  - # 5
    frequency:     6.3065072176
  - # 6
    frequency:     6.4023971346

- q-position: [    0.0731707,    0.0000000,    0.0000000 ]
  weight: 8    
  band:
  - # 1
    frequency:     0.8051664578
  - # 2
    frequency:     0.8051664578
  - # 3
    frequency:     1.1342460846
  - # 4
    frequency:     6.2974546025
  - # 5
    frequency:     6.2974546025
  - # 6
    frequency:     6.5053521041

- q-position: [    0.0975610,    0.0000000,    0.0000000 ]
  weight: 8    
  band:
  - # 1
    frequency:     1.0696820042
  - # 2
    frequency:     1.0696820042
  - # 3
    frequency:     1.5079321939
  - # 4
    frequency:     6.2807857611
  - # 5
    frequency:     6.2807857611
  - # 6
    frequency:     6.6323767780

- q-position: [    0.1219512,    0.0000000,    0.0000000 ]
  weight: 8    
  band:
  - # 1
    frequency:     1.3312871450
  - # 2
    frequency:     1.3312871450
  - # 3
    frequency:     1.8769981509
  - # 4
    frequency:     6.2541112532
  - # 5
    frequency:     6.2541112532
  - # 6
    frequency:     6.7707701300

- q-position: [    0.1463415,    0.0000000,    0.0000000 ]
  weight: 8    
  band:
  - # 1
    frequency:     1.5894965138
  - # 2
    frequency:     1.5894965138
  - # 3
    frequency:     2.2394110478
  - # 4
    frequency:     6.2160387476
  - # 5
    frequency:     6.2160387476
  - # 6
    frequency:     6.9086774578

- q-position: [    0.1707317,    0.0000000,    0.0000000 ]
  weight: 8    
  band:
  - # 1
    frequency:     1.8437091426
  - # 2
    frequency:     1.8437091426
  - # 3
    frequency:     2.5928116895
  - # 4
    frequency:     6.1666020339
  - # 5
    frequency:     6.1666020339
  - # 6
    frequency:     7.0363283517

- q-position: [    0.1951220,    0.0000000,    0.0000000 ]
  weight: 8    
  band:
  - # 1
    frequency:     2.0930775883
  - # 2
    frequency:     2.0930775883
  - # 3
    frequency:     2.9346641205
  - # 4
    frequency:     6.1072381870
  - # 5
    frequency:     6.1072381870
  - # 6
    frequency:     7.1464849831

- q-position: [    0.2195122,    0.0000000,    0.0000000 ]
  weight: 8    
  band:
  - # 1
    frequency:     2.3364348824
  - # 2
    frequency:     2.3364348824
  - # 3
    frequency:     3.2624821707
  - # 4
    frequency:     6.0403330830
  - # 5
    frequency:     6.0403330830
  - # 6
    frequency:     7.2342622490

- q-position: [    0.2439024,    0.0000000,    0.0000000 ]
  weight: 8    
  band:
  - # 1
    frequency:     2.5723166373
  - # 2
    frequency:     2.5723166373
  - # 3
    frequency:     3.5741178667
  - # 4
    frequency:     5.9684886125
  - # 5
    frequency:     5.9684886125
  - # 6
    frequency:     7.2965833375

- q-position: [    0.2682927,    0.0000000,    0.0000000 ]
  weight: 8    
  band:
  - # 1
    frequency:     2.7990971582
  - # 2
    frequency:     2.7990971582
  - # 3
    frequency:     3.8680747627
  - # 4
    frequency:     5.8937515945
  - # 5
    frequency:     5.8937515945
  - # 6
    frequency:     7.3315454774

- q-position: [    0.2926829,    0.0000000,    0.0000000 ]
  weight: 8    
  band:
  - # 1
    frequency:     3.0152200409
  - # 2
    frequency:     3.0152200409
  - # 3
    frequency:     4.1437800846
  - # 4
    frequency:     5.8170609525
  - # 5
    frequency:     5.8170609525
  - # 6
    frequency:     7.3379261521

- q-position: [    0.3170732,    0.0000000,    0.0000000 ]
  weight: 8    
  band:
  - # 1
    frequency:     3.2194482161
  - # 2
    frequency:     3.2194482161
  - # 3
    frequency:     4.4017253241
  - # 4
    frequency:     5.7381104290
  - # 5
    frequency:     5.7381104290
  - # 6
    frequency:     7.3149799338

- q-position: [    0.3414634,    0.0000000,    0.0000000 ]
  weight: 8    
  band:
  - # 1
    frequency:     3.4110082177
  - # 2
    frequency:     3.4110082177
  - # 3
    frequency:     4.6433796489
  - # 4
    frequency:     5.6557071100
  - # 5
    frequency:     5.6557071100
  - # 6
    frequency:     7.2625772761

- q-position: [    0.3658537,    0.0000000,    0.0000000 ]
  weight: 8    
  band:
  - # 1
    frequency:     3.5894852614
  - # 2
    frequency:     3.5894852614
  - # 3
    frequency:     4.8707945072
  - # 4
    frequency:     5.5685743488
  - # 5
    frequency:     5.5685743488
  - # 6
    frequency:     7.1816479828

- q-position: [    0.3902439,    0.0000000,    0.0000000 ]
  weight: 8    
  band:
  - # 1
    frequency:     3.7543398253
  - # 2
    frequency:     3.7543398253
  - # 3
    frequency:     5.0858212357
  - # 4
    frequency:     5.4764626162
  - # 5
    frequency:     5.4764626162
  - # 6
    frequency:     7.0748642119

- q-position: [    0.4146341,    0.0000000,    0.0000000 ]
  weight: 8    
  band:
  - # 1
    frequency:     3.9039258228
  - # 2
    frequency:     3.9039258228
  - # 3
    frequency:     5.2887759163
  - # 4
    frequency:     5.3814532024
  - # 5
    frequency:     5.3814532024
  - # 6
    frequency:     6.9476173377

- q-position: [    0.4390244,    0.0000000,    0.0000000 ]
  weight: 8    
  band:
  - # 1
    frequency:     4.0338786473
  - # 2
    frequency:     4.0338786473
  - # 3
    frequency:     5.2894648415
  - # 4
    frequency:     5.2894648415
  - # 5
    frequency:     5.4760164504
  - # 6
    frequency:     6.8097904062

- q-position: [    0.4634146,    0.0000000,    0.0000000 ]
  weight: 8    
  band:
  - # 1
    frequency:     4.1349856015
  - # 2
    frequency:     4.1349856015
  - # 3
    frequency:     5.2118809655
  - # 4
    frequency:     5.2118809655
  - # 5
    frequency:     5.6349215422
  - # 6
    frequency:     6.6799040096

- q-position: [    0.4878049,    0.0000000,    0.0000000 ]
  weight: 8    
  band:
  - # 1
    frequency:     4.1924638368
  - # 2
    frequency:     4.1924638368
  - # 3
    frequency:     5.1655427056
  - # 4
    frequency:     5.1655427056
  - # 5
    frequency:     5.7351541423
  - # 6
    frequency:     6.5929120980

- q-position: [    0.0243902,    0.0243902,    0.0000000 ]
  weight: 6    
  band:
  - # 1
    frequency:     0.2400518183
  - # 2
    frequency:     0.2400518183
  - # 3
    frequency:     0.5192899327
  - # 4
    frequency:     6.3137511638
  - # 5
    frequency:     6.3137511638
  - # 6
    frequency:     6.3358585906

- q-position: [    0.0487805,    0.0243902,    0.0000000 ]
  weight: 24   
  band:
  - # 1
    frequency:     0.4314555630
  - # 2
    frequency:     0.4594003859
  - # 3
    frequency:     0.8114412580
  - # 4
    frequency:     6.3096008665
  - # 5
    frequency:     6.3144661044
  - # 6
    frequency:     6.3858969486

- q-position: [    0.0731707,    0.0243902,    0.0000000 ]
  weight: 24   
  band:
  - # 1
    frequency:     0.6739646537
  - # 2
    frequency:     0.7357666345
  - # 3
    frequency:     1.1394562065
  - # 4
    frequency:     6.2984746014
  - # 5
    frequency:     6.3113467085
  - # 6
    frequency:     6.4764058183

- q-position: [    0.0975610,    0.0243902,    0.0000000 ]
  weight: 24   
  band:
  - # 1
    frequency:     0.9256752821
  - # 2
    frequency:     1.0142778984
  - # 3
    frequency:     1.4833798117
  - # 4
    frequency:     6.2798504643
  - # 5
    frequency:     6.3020956103
  - # 6
    frequency:     6.5946440646

- q-position: [    0.1219512,    0.0243902,    0.0000000 ]
  weight: 24   
  band:
  - # 1
    frequency:     1.1784920162
  - # 2
    frequency:     1.2885434949
  - # 3
    frequency:     1.8336282238
  - # 4
    frequency:     6.2511761701
  - # 5
    frequency:     6.2842721312
  - # 6
    frequency:     6.7281169715

- q-position: [    0.1463415,    0.0243902,    0.0000000 ]
  weight: 24   
  band:
  - # 1
    frequency:     1.4299816303
  - # 2
    frequency:     1.5577054691
  - # 3
    frequency:     2.1840732690
  - # 4
    frequency:     6.2106427910
  - # 5
    frequency:     6.2560919049
  - # 6
    frequency:     6.8647246482

- q-position: [    0.1707317,    0.0243902,    0.0000000 ]
  weight: 24   
  band:
  - # 1
    frequency:     1.6790497993
  - # 2
    frequency:     1.8214351815
  - # 3
    frequency:     2.5301241901
  - # 4
    frequency:     6.1578788622
  - # 5
    frequency:     6.2169821900
  - # 6
    frequency:     6.9941106336

- q-position: [    0.1951220,    0.0243902,    0.0000000 ]
  weight: 24   
  band:
  - # 1
    frequency:     1.9248290862
  - # 2
    frequency:     2.0791568124
  - # 3
    frequency:     2.8679371965
  - # 4
    frequency:     6.0940922002
  - # 5
    frequency:     6.1677240871
  - # 6
    frequency:     7.1083408807

- q-position: [    0.2195122,    0.0243902,    0.0000000 ]
  weight: 24   
  band:
  - # 1
    frequency:     2.1662709744
  - # 2
    frequency:     2.3299294502
  - # 3
    frequency:     3.1941549306
  - # 4
    frequency:     6.0217344605
  - # 5
    frequency:     6.1101530703
  - # 6
    frequency:     7.2019044656

- q-position: [    0.2439024,    0.0243902,    0.0000000 ]
  weight: 24   
  band:
  - # 1
    frequency:     2.4020151178
  - # 2
    frequency:     2.5724814271
  - # 3
    frequency:     3.5059373087
  - # 4
    frequency:     5.9438108818
  - # 5
    frequency:     6.0465306492
  - # 6
    frequency:     7.2712627955

- q-position: [    0.2682927,    0.0243902,    0.0000000 ]
  weight: 24   
  band:
  - # 1
    frequency:     2.6304451818
  - # 2
    frequency:     2.8053346662
  - # 3
    frequency:     3.8011431574
  - # 4
    frequency:     5.8630570156
  - # 5
    frequency:     5.9788021983
  - # 6
    frequency:     7.3142220172

- q-position: [    0.2926829,    0.0243902,    0.0000000 ]
  weight: 24   
  band:
  - # 1
    frequency:     2.8498899958
  - # 2
    frequency:     3.0270051688
  - # 3
    frequency:     4.0785499528
  - # 4
    frequency:     5.7812526557
  - # 5
    frequency:     5.9079914269
  - # 6
    frequency:     7.3293772983

- q-position: [    0.3170732,    0.0243902,    0.0000000 ]
  weight: 24   
  band:
  - # 1
    frequency:     3.0589005012
  - # 2
    frequency:     3.2362278867
  - # 3
    frequency:     4.3379921250
  - # 4
    frequency:     5.6989219659
  - # 5
    frequency:     5.8339411933
  - # 6
    frequency:     7.3158084018

- q-position: [    0.3414634,    0.0243902,    0.0000000 ]
  weight: 24   
  band:
  - # 1
    frequency:     3.2564868887
  - # 2
    frequency:     3.4320987366
  - # 3
    frequency:     4.5802740688
  - # 4
    frequency:     5.6155961459
  - # 5
    frequency:     5.7555065970
  - # 6
    frequency:     7.2731108007

- q-position: [    0.3658537,    0.0243902,    0.0000000 ]
  weight: 24   
  band:
  - # 1
    frequency:     3.4421769192
  - # 2
    frequency:     3.6139882726
  - # 3
    frequency:     4.8066220675
  - # 4
    frequency:     5.5307912533
  - # 5
    frequency:     5.6711749132
  - # 6
    frequency:     7.2017495509

- q-position: [    0.3902439,    0.0243902,    0.0000000 ]
  weight: 24   
  band:
  - # 1
    frequency:     3.6157732776
  - # 2
    frequency:     3.7810697658
  - # 3
    frequency:     5.0167396048
  - # 4
    frequency:     5.4464684770
  - # 5
    frequency:     5.5799794078
  - # 6
    frequency:     7.1036669144

- q-position: [    0.4146341,    0.0243902,    0.0000000 ]
  weight: 24   
  band:
  - # 1
    frequency:     3.7767228820
  - # 2
    frequency:     3.9312904253
  - # 3
    frequency:     5.1948726764
  - # 4
    frequency:     5.3813617613
  - # 5
    frequency:     5.4825457930
  - # 6
    frequency:     6.9831303944

- q-position: [    0.4390244,    0.0243902,    0.0000000 ]
  weight: 24   
  band:
  - # 1
    frequency:     3.9230173997
  - # 2
    frequency:     4.0595970826
  - # 3
    frequency:     5.2250830482
  - # 4
    frequency:     5.3821982103
  - # 5
    frequency:     5.4556275842
  - # 6
    frequency:     6.8481136923

- q-position: [    0.4634146,    0.0243902,    0.0000000 ]
  weight: 24   
  band:
  - # 1
    frequency:     4.0495283115
  - # 2
    frequency:     4.1556143631
  - # 3
    frequency:     5.1712477319
  - # 4
    frequency:     5.2862113346
  - # 5
    frequency:     5.6089517515
  - # 6
    frequency:     6.7133574103

- q-position: [    0.4878049,    0.0243902,    0.0000000 ]
  weight: 24   
  band:
  - # 1
    frequency:     4.1460052254
  - # 2
    frequency:     4.2034974487
  - # 3
    frequency:     5.1406948088
  - # 4
    frequency:     5.2071151183
  - # 5
    frequency:     5.7285512192
  - # 6
    frequency:     6.6072890167

- q-position: [   -0.4878049,    0.0243902,    0.0000000 ]
  weight: 24   
  band:
  - # 1
    frequency:     4.1907323750
  - # 2
    frequency:     4.1970576008
  - # 3
    frequency:     5.1558760405
  - # 4
    frequency:     5.1619682309
  - # 5
    frequency:     5.7641644028
  - # 6
    frequency:     6.5749637329

- q-position: [   -0.4634146,    0.0243902,    0.0000000 ]
  weight: 24   
  band:
  - # 1
    frequency:     4.1211509881
  - # 2
    frequency:     4.1899305574
  - # 3
    frequency:     5.1640474071
  - # 4
    frequency:     5.2138416009
  - # 5
    frequency:     5.6955200947
  - # 6
    frequency:     6.6369730362

- q-position: [   -0.4390244,    0.0243902,    0.0000000 ]
  weight: 24   
  band:
  - # 1
    frequency:     4.0107596016
  - # 2
    frequency:     4.1267337031
  - # 3
    frequency:     5.2104814607
  - # 4
    frequency:     5.2930422680
  - # 5
    frequency:     5.5618616577
  - # 6
    frequency:     6.7569686027

- q-position: [   -0.4146341,    0.0243902,    0.0000000 ]
  weight: 24   
  band:
  - # 1
    frequency:     3.8741575236
  - # 2
    frequency:     4.0218352228
  - # 3
    frequency:     5.2851643967
  - # 4
    frequency:     5.3134233215
  - # 5
    frequency:     5.4636581822
  - # 6
    frequency:     6.8940326923

- q-position: [   -0.3902439,    0.0243902,    0.0000000 ]
  weight: 24   
  band:
  - # 1
    frequency:     3.7199016768
  - # 2
    frequency:     3.8890408909
  - # 3
    frequency:     5.1529439647
  - # 4
    frequency:     5.3722146655
  - # 5
    frequency:     5.5293626302
  - # 6
    frequency:     7.0253649905

- q-position: [   -0.3658537,    0.0243902,    0.0000000 ]
  weight: 24   
  band:
  - # 1
    frequency:     3.5519296029
  - # 2
    frequency:     3.7364933408
  - # 3
    frequency:     4.9502440968
  - # 4
    frequency:     5.4618144475
  - # 5
    frequency:     5.6202410813
  - # 6
    frequency:     7.1390316121

- q-position: [   -0.3414634,    0.0243902,    0.0000000 ]
  weight: 24   
  band:
  - # 1
    frequency:     3.3716451472
  - # 2
    frequency:     3.5679264946
  - # 3
    frequency:     4.7318348591
  - # 4
    frequency:     5.5495310522
  - # 5
    frequency:     5.7080800176
  - # 6
    frequency:     7.2285170563

- q-position: [   -0.3170732,    0.0243902,    0.0000000 ]
  weight: 24   
  band:
  - # 1
    frequency:     3.1794098919
  - # 2
    frequency:     3.3848037034
  - # 3
    frequency:     4.4988657079
  - # 4
    frequency:     5.6343901219
  - # 5
    frequency:     5.7902196128
  - # 6
    frequency:     7.2904453493

- q-position: [   -0.2926829,    0.0243902,    0.0000000 ]
  weight: 24   
  band:
  - # 1
    frequency:     2.9754735773
  - # 2
    frequency:     3.1878080533
  - # 3
    frequency:     4.2499182844
  - # 4
    frequency:     5.7171614778
  - # 5
    frequency:     5.8672620890
  - # 6
    frequency:     7.3234489314

- q-position: [   -0.2682927,    0.0243902,    0.0000000 ]
  weight: 24   
  band:
  - # 1
    frequency:     2.7604623395
  - # 2
    frequency:     2.9776695617
  - # 3
    frequency:     3.9835687836
  - # 4
    frequency:     5.7989594321
  - # 5
    frequency:     5.9404306348
  - # 6
    frequency:     7.3274113647

- q-position: [   -0.2439024,    0.0243902,    0.0000000 ]
  weight: 24   
  band:
  - # 1
    frequency:     2.5355078675
  - # 2
    frequency:     2.7554981117
  - # 3
    frequency:     3.6991880393
  - # 4
    frequency:     5.8802064642
  - # 5
    frequency:     6.0104564497
  - # 6
    frequency:     7.3029367979

- q-position: [   -0.2195122,    0.0243902,    0.0000000 ]
  weight: 24   
  band:
  - # 1
    frequency:     2.3021153781
  - # 2
    frequency:     2.5227830018
  - # 3
    frequency:     3.3971999913
  - # 4
    frequency:     5.9600729059
  - # 5
    frequency:     6.0770244568
  - # 6
    frequency:     7.2510974410

- q-position: [   -0.1951220,    0.0243902,    0.0000000 ]
  weight: 24   
  band:
  - # 1
    frequency:     2.0619002677
  - # 2
    frequency:     2.2812189621
  - # 3
    frequency:     3.0790403039
  - # 4
    frequency:     6.0364585935
  - # 5
    frequency:     6.1387165964
  - # 6
    frequency:     7.1735178460

- q-position: [   -0.1707317,    0.0243902,    0.0000000 ]
  weight: 24   
  band:
  - # 1
    frequency:     1.8163279628
  - # 2
    frequency:     2.0325025787
  - # 3
    frequency:     2.7469491457
  - # 4
    frequency:     6.1064604558
  - # 5
    frequency:     6.1933966371
  - # 6
    frequency:     7.0727787381

- q-position: [   -0.1463415,    0.0243902,    0.0000000 ]
  weight: 24   
  band:
  - # 1
    frequency:     1.5665609663
  - # 2
    frequency:     1.7781984786
  - # 3
    frequency:     2.4037118752
  - # 4
    frequency:     6.1671437768
  - # 5
    frequency:     6.2388802805
  - # 6
    frequency:     6.9530232882

- q-position: [   -0.1219512,    0.0243902,    0.0000000 ]
  weight: 24   
  band:
  - # 1
    frequency:     1.3134836642
  - # 2
    frequency:     1.5197226757
  - # 3
    frequency:     2.0524443677
  - # 4
    frequency:     6.2163583617
  - # 5
    frequency:     6.2736557152
  - # 6
    frequency:     6.8205609560

- q-position: [   -0.0975610,    0.0243902,    0.0000000 ]
  weight: 24   
  band:
  - # 1
    frequency:     1.0580061104
  - # 2
    frequency:     1.2584640712
  - # 3
    frequency:     1.6965136100
  - # 4
    frequency:     6.2533390945
  - # 5
    frequency:     6.2974034528
  - # 6
    frequency:     6.6842095892

- q-position: [   -0.0731707,    0.0243902,    0.0000000 ]
  weight: 24   
  band:
  - # 1
    frequency:     0.8020342268
  - # 2
    frequency:     0.9961037123
  - # 3
    frequency:     1.3397336619
  - # 4
    frequency:     6.2789013545
  - # 5
    frequency:     6.3111135926
  - # 6
    frequency:     6.5551183832

- q-position: [   -0.0487805,    0.0243902,    0.0000000 ]
  weight: 24   
  band:
  - # 1
    frequency:     0.5520844370
  - # 2
    frequency:     0.7354373469
  - # 3
    frequency:     0.9872459206
  - # 4
    frequency:     6.2951646477
  - # 5
    frequency:     6.3166708672
  - # 6
    frequency:     6.4459296514

- q-position: [   -0.0243902,    0.0243902,    0.0000000 ]
  weight: 12   
  band:
  - # 1
    frequency:     0.3380377640
  - # 2
    frequency:     0.4834121766
  - # 3
    frequency:     0.6491610489
  - # 4
    frequency:     6.3048812959
  - # 5
    frequency:     6.3157451828
  - # 6
    frequency:     6.3695010828

- q-position: [    0.0487805,    0.0487805,    0.0000000 ]
  weight: 6    
  band:
  - # 1
    frequency:     0.4760005332
  - # 2
    frequency:     0.4760005332
  - # 3
    frequency:     1.0368625017
  - # 4
    frequency:     6.3198715904
  - # 5
    frequency:     6.3198715904
  - # 6
    frequency:     6.4030630742

- q-position: [    0.0731707,    0.0487805,    0.0000000 ]
  weight: 24   
  band:
  - # 1
    frequency:     0.6368464045
  - # 2
    frequency:     0.6592016116
  - # 3
    frequency:     1.3137369192
  - # 4
    frequency:     6.3149673808
  - # 5
    frequency:     6.3220804526
  - # 6
    frequency:     6.4698519104

- q-position: [    0.0975610,    0.0487805,    0.0000000 ]
  weight: 24   
  band:
  - # 1
    frequency:     0.8467396977
  - # 2
    frequency:     0.9110516048
  - # 3
    frequency:     1.6157558606
  - # 4
    frequency:     6.2968519602
  - # 5
    frequency:     6.3192855395
  - # 6
    frequency:     6.5725233960

- q-position: [    0.1219512,    0.0487805,    0.0000000 ]
  weight: 24   
  band:
  - # 1
    frequency:     1.0746174617
  - # 2
    frequency:     1.1829400231
  - # 3
    frequency:     1.9315994001
  - # 4
    frequency:     6.2672996729
  - # 5
    frequency:     6.3091900433
  - # 6
    frequency:     6.6948961882

- q-position: [    0.1463415,    0.0487805,    0.0000000 ]
  weight: 24   
  band:
  - # 1
    frequency:     1.3091443676
  - # 2
    frequency:     1.4587934971
  - # 3
    frequency:     2.2542240969
  - # 4
    frequency:     6.2251095081
  - # 5
    frequency:     6.2898046647
  - # 6
    frequency:     6.8241071386

- q-position: [    0.1707317,    0.0487805,    0.0000000 ]
  weight: 24   
  band:
  - # 1
    frequency:     1.5457956609
  - # 2
    frequency:     1.7325481658
  - # 3
    frequency:     2.5781750260
  - # 4
    frequency:     6.1696461157
  - # 5
    frequency:     6.2600953173
  - # 6
    frequency:     6.9494046013

- q-position: [    0.1951220,    0.0487805,    0.0000000 ]
  weight: 24   
  band:
  - # 1
    frequency:     1.7823388224
  - # 2
    frequency:     2.0013163736
  - # 3
    frequency:     2.8987270098
  - # 4
    frequency:     6.1017891722
  - # 5
    frequency:     6.2202742227
  - # 6
    frequency:     7.0624082142

- q-position: [    0.2195122,    0.0487805,    0.0000000 ]
  weight: 24   
  band:
  - # 1
    frequency:     2.0171897345
  - # 2
    frequency:     2.2632526496
  - # 3
    frequency:     3.2116374494
  - # 4
    frequency:     6.0238992959
  - # 5
    frequency:     6.1716567596
  - # 6
    frequency:     7.1571593961

- q-position: [    0.2439024,    0.0487805,    0.0000000 ]
  weight: 24   
  band:
  - # 1
    frequency:     2.2487698004
  - # 2
    frequency:     2.5168113497
  - # 3
    frequency:     3.5131613410
  - # 4
    frequency:     5.9392643481
  - # 5
    frequency:     6.1161523906
  - # 6
    frequency:     7.2297557350

- q-position: [    0.2682927,    0.0487805,    0.0000000 ]
  weight: 24   
  band:
  - # 1
    frequency:     2.4753166944
  - # 2
    frequency:     2.7605167138
  - # 3
    frequency:     3.8001969052
  - # 4
    frequency:     5.8512976995
  - # 5
    frequency:     6.0555747358
  - # 6
    frequency:     7.2777523833

- q-position: [    0.2926829,    0.0487805,    0.0000000 ]
  weight: 24   
  band:
  - # 1
    frequency:     2.6949642455
  - # 2
    frequency:     2.9929680730
  - # 3
    frequency:     4.0704695933
  - # 4
    frequency:     5.7627809769
  - # 5
    frequency:     5.9910105157
  - # 6
    frequency:     7.2995703617

- q-position: [    0.3170732,    0.0487805,    0.0000000 ]
  weight: 24   
  band:
  - # 1
    frequency:     2.9059822317
  - # 2
    frequency:     3.2129442644
  - # 3
    frequency:     4.3226296868
  - # 4
    frequency:     5.6754602446
  - # 5
    frequency:     5.9224657937
  - # 6
    frequency:     7.2941105420

- q-position: [    0.3414634,    0.0487805,    0.0000000 ]
  weight: 24   
  band:
  - # 1
    frequency:     3.1070530484
  - # 2
    frequency:     3.4194784928
  - # 3
    frequency:     4.5560358866
  - # 4
    frequency:     5.5903210133
  - # 5
    frequency:     5.8489195649
  - # 6
    frequency:     7.2606871168

- q-position: [    0.3658537,    0.0487805,    0.0000000 ]
  weight: 24   
  band:
  - # 1
    frequency:     3.2974415668
  - # 2
    frequency:     3.6117472782
  - # 3
    frequency:     4.7696438848
  - # 4
    frequency:     5.5091052829
  - # 5
    frequency:     5.7687893858
  - # 6
    frequency:     7.1992940931

- q-position: [    0.3902439,    0.0487805,    0.0000000 ]
  weight: 24   
  band:
  - # 1
    frequency:     3.4769280792
  - # 2
    frequency:     3.7885849392
  - # 3
    frequency:     4.9576635570
  - # 4
    frequency:     5.4393033909
  - # 5
    frequency:     5.6806958061
  - # 6
    frequency:     7.1111409353

- q-position: [    0.4146341,    0.0487805,    0.0000000 ]
  weight: 24   
  band:
  - # 1
    frequency:     3.6454209206
  - # 2
    frequency:     3.9473754492
  - # 3
    frequency:     5.0918909409
  - # 4
    frequency:     5.4126042678
  - # 5
    frequency:     5.5843503519
  - # 6
    frequency:     6.9993988826

- q-position: [    0.4390244,    0.0487805,    0.0000000 ]
  weight: 24   
  band:
  - # 1
    frequency:     3.8022072403
  - # 2
    frequency:     4.0819863276
  - # 3
    frequency:     5.1199398895
  - # 4
    frequency:     5.4814249884
  - # 5
    frequency:     5.4874576156
  - # 6
    frequency:     6.8702946995

- q-position: [    0.4634146,    0.0487805,    0.0000000 ]
  weight: 24   
  band:
  - # 1
    frequency:     3.9447952205
  - # 2
    frequency:     4.1798907672
  - # 3
    frequency:     5.0919955140
  - # 4
    frequency:     5.3763998826
  - # 5
    frequency:     5.6221029028
  - # 6
    frequency:     6.7353243579

- q-position: [    0.4878049,    0.0487805,    0.0000000 ]
  weight: 24   
  band:
  - # 1
    frequency:     4.0672848054
  - # 2
    frequency:     4.2224665372
  - # 3
    frequency:     5.0814660915
  - # 4
    frequency:     5.2775498939
  - # 5
    frequency:     5.7467039409
  - # 6
    frequency:     6.6167376744

- q-position: [    0.5121951,    0.0487805,    0.0000000 ]
  weight: 24   
  band:
  - # 1
    frequency:     4.1586103398
  - # 2
    frequency:     4.1977946579
  - # 3
    frequency:     5.1158742535
  - # 4
    frequency:     5.1979395837
  - # 5
    frequency:     5.8101301836
  - # 6
    frequency:     6.5554599932

- q-position: [   -0.4634146,    0.0487805,    0.0000000 ]
  weight: 24   
  band:
  - # 1
    frequency:     4.1148462671
  - # 2
    frequency:     4.2032611043
  - # 3
    frequency:     5.1540800095
  - # 4
    frequency:     5.1886910847
  - # 5
    frequency:     5.7754661771
  - # 6
    frequency:     6.5882460422

- q-position: [   -0.4390244,    0.0487805,    0.0000000 ]
  weight: 24   
  band:
  - # 1
    frequency:     3.9930502953
  - # 2
    frequency:     4.1898755121
  - # 3
    frequency:     5.1570668265
  - # 4
    frequency:     5.2730981060
  - # 5
    frequency:     5.6704593798
  - # 6
    frequency:     6.6932849036

- q-position: [   -0.4146341,    0.0487805,    0.0000000 ]
  weight: 24   
  band:
  - # 1
    frequency:     3.8473503888
  - # 2
    frequency:     4.1221815794
  - # 3
    frequency:     5.2018182868
  - # 4
    frequency:     5.3110233088
  - # 5
    frequency:     5.5783373183
  - # 6
    frequency:     6.8255702918

- q-position: [   -0.3902439,    0.0487805,    0.0000000 ]
  weight: 24   
  band:
  - # 1
    frequency:     3.6858574012
  - # 2
    frequency:     4.0144194473
  - # 3
    frequency:     5.2117390421
  - # 4
    frequency:     5.2722077971
  - # 5
    frequency:     5.6018463595
  - # 6
    frequency:     6.9577100347

- q-position: [   -0.3658537,    0.0487805,    0.0000000 ]
  weight: 24   
  band:
  - # 1
    frequency:     3.5122082598
  - # 2
    frequency:     3.8792601633
  - # 3
    frequency:     5.0356884775
  - # 4
    frequency:     5.3538712912
  - # 5
    frequency:     5.6829100080
  - # 6
    frequency:     7.0756712896

- q-position: [   -0.3414634,    0.0487805,    0.0000000 ]
  weight: 24   
  band:
  - # 1
    frequency:     3.3276817877
  - # 2
    frequency:     3.7239269194
  - # 3
    frequency:     4.8337719696
  - # 4
    frequency:     5.4387180014
  - # 5
    frequency:     5.7697570826
  - # 6
    frequency:     7.1718723201

- q-position: [   -0.3170732,    0.0487805,    0.0000000 ]
  weight: 24   
  band:
  - # 1
    frequency:     3.1325796294
  - # 2
    frequency:     3.5517531632
  - # 3
    frequency:     4.6148729978
  - # 4
    frequency:     5.5236815331
  - # 5
    frequency:     5.8521321798
  - # 6
    frequency:     7.2422909201

- q-position: [   -0.2926829,    0.0487805,    0.0000000 ]
  weight: 24   
  band:
  - # 1
    frequency:     2.9270994340
  - # 2
    frequency:     3.3642311127
  - # 3
    frequency:     4.3795789998
  - # 4
    frequency:     5.6085468310
  - # 5
    frequency:     5.9285589808
  - # 6
    frequency:     7.2851694822

- q-position: [   -0.2682927,    0.0487805,    0.0000000 ]
  weight: 24   
  band:
  - # 1
    frequency:     2.7118292758
  - # 2
    frequency:     3.1623370819
  - # 3
    frequency:     4.1270657710
  - # 4
    frequency:     5.6941148363
  - # 5
    frequency:     5.9996502539
  - # 6
    frequency:     7.3001963829

- q-position: [   -0.2439024,    0.0487805,    0.0000000 ]
  weight: 24   
  band:
  - # 1