phonopy:
  version: 1.12.0
  calculator: pwmat
  configuration:
    dim: "3 3 3"
    band_labels: "\Gamma  X M \Gamma R"
    band: "0.0 0.0 0.0  0.5 0.0 0.0  0.5 0.5 0.0  0.0 0.0 0.0  0.5 0.5 0.5"
    cell_filename: "../atom.config"
    primitive_axis: "0.0 0.5 0.5  0.5 0.0 0.5  0.5 0.5 0.0"
    fc_symmetry: "1"
    frequency_conversion_factor: "15.633302"
    fpitch: "0.1"
    dos: "TRUE"
    sigma: "0.1"
    band_points: "101"
    mp: "41 41 41"

supercell_matrix:
- [   3,   0,   0 ]
- [   0,   3,   0 ]
- [   0,   0,   3 ]

space_group:
  type: "Fm-3m"
  number: 225
  Hall_symbol: "-F 4 2 3"

primitive_matrix:
- [  0.000000000000000,  0.500000000000000,  0.500000000000000 ]
- [  0.500000000000000,  0.000000000000000,  0.500000000000000 ]
- [  0.500000000000000,  0.500000000000000,  0.000000000000000 ]

primitive_cell:
  lattice:
  - [     0.000000000000000,     2.698938522500000,     2.698938522500000 ] # a
  - [     2.698938522500000,     0.000000000000000,     2.698938522500000 ] # b
  - [     2.698938522500000,     2.698938522500000,     0.000000000000000 ] # c
  points:
  - symbol: Na # 1
    coordinates: [  0.000000000000000,  0.000000000000000,  0.000000000000000 ]
    mass: 22.989769
  - symbol: Cl # 2
    coordinates: [  0.500000000000000,  0.500000000000000,  0.500000000000000 ]
    mass: 35.453000
  reciprocal_lattice: # without 2pi
  - [    -0.185258017487873,     0.185258017487873,     0.185258017487873 ] # a*
  - [     0.185258017487873,    -0.185258017487873,     0.185258017487873 ] # b*
  - [     0.185258017487873,     0.185258017487873,    -0.185258017487873 ] # c*

unit_cell:
  lattice:
  - [     5.397877045000000,     0.000000000000000,     0.000000000000000 ] # a
  - [     0.000000000000000,     5.397877045000000,     0.000000000000000 ] # b
  - [     0.000000000000000,     0.000000000000000,     5.397877045000000 ] # c
  points:
  - symbol: Na # 1
    coordinates: [  0.000000000000000,  0.000000000000000,  0.000000000000000 ]
    mass: 22.989769
    reduced_to: 1
  - symbol: Na # 2
    coordinates: [  0.000000000000000,  0.500000000000000,  0.500000000000000 ]
    mass: 22.989769
    reduced_to: 1
  - symbol: Na # 3
    coordinates: [  0.500000000000000,  0.000000000000000,  0.500000000000000 ]
    mass: 22.989769
    reduced_to: 1
  - symbol: Na # 4
    coordinates: [  0.500000000000000,  0.500000000000000,  0.000000000000000 ]
    mass: 22.989769
    reduced_to: 1
  - symbol: Cl # 5
    coordinates: [  0.500000000000000,  0.500000000000000,  0.500000000000000 ]
    mass: 35.453000
    reduced_to: 5
  - symbol: Cl # 6
    coordinates: [  0.500000000000000,  0.000000000000000,  0.000000000000000 ]
    mass: 35.453000
    reduced_to: 5
  - symbol: Cl # 7
    coordinates: [  0.000000000000000,  0.500000000000000,  0.000000000000000 ]
    mass: 35.453000
    reduced_to: 5
  - symbol: Cl # 8
    coordinates: [  0.000000000000000,  0.000000000000000,  0.500000000000000 ]
    mass: 35.453000
    reduced_to: 5

supercell:
  lattice:
  - [    16.193631135000000,     0.000000000000000,     0.000000000000000 ] # a
  - [     0.000000000000000,    16.193631135000000,     0.000000000000000 ] # b
  - [     0.000000000000000,     0.000000000000000,    16.193631135000000 ] # c
  points:
  - symbol: Na # 1
    coordinates: [  0.000000000000000,  0.000000000000000,  0.000000000000000 ]
    mass: 22.989769
    reduced_to: 1
  - symbol: Na # 2
    coordinates: [  0.333333333333333,  0.000000000000000,  0.000000000000000 ]
    mass: 22.989769
    reduced_to: 1
  - symbol: Na # 3
    coordinates: [  0.666666666666667,  0.000000000000000,  0.000000000000000 ]
    mass: 22.989769
    reduced_to: 1
  - symbol: Na # 4
    coordinates: [  0.000000000000000,  0.333333333333333,  0.000000000000000 ]
    mass: 22.989769
    reduced_to: 1
  - symbol: Na # 5
    coordinates: [  0.333333333333333,  0.333333333333333,  0.000000000000000 ]
    mass: 22.989769
    reduced_to: 1
  - symbol: Na # 6
    coordinates: [  0.666666666666667,  0.333333333333333,  0.000000000000000 ]
    mass: 22.989769
    reduced_to: 1
  - symbol: Na # 7
    coordinates: [  0.000000000000000,  0.666666666666667,  0.000000000000000 ]
    mass: 22.989769
    reduced_to: 1
  - symbol: Na # 8
    coordinates: [  0.333333333333333,  0.666666666666667,  0.000000000000000 ]
    mass: 22.989769
    reduced_to: 1
  - symbol: Na # 9
    coordinates: [  0.666666666666667,  0.666666666666667,  0.000000000000000 ]
    mass: 22.989769
    reduced_to: 1
  - symbol: Na # 10
    coordinates: [  0.000000000000000,  0.000000000000000,  0.333333333333333 ]
    mass: 22.989769
    reduced_to: 1
  - symbol: Na # 11
    coordinates: [  0.333333333333333,  0.000000000000000,  0.333333333333333 ]
    mass: 22.989769
    reduced_to: 1
  - symbol: Na # 12
    coordinates: [  0.666666666666667,  0.000000000000000,  0.333333333333333 ]
    mass: 22.989769
    reduced_to: 1
  - symbol: Na # 13
    coordinates: [  0.000000000000000,  0.333333333333333,  0.333333333333333 ]
    mass: 22.989769
    reduced_to: 1
  - symbol: Na # 14
    coordinates: [  0.333333333333333,  0.333333333333333,  0.333333333333333 ]
    mass: 22.989769
    reduced_to: 1
  - symbol: Na # 15
    coordinates: [  0.666666666666667,  0.333333333333333,  0.333333333333333 ]
    mass: 22.989769
    reduced_to: 1
  - symbol: Na # 16
    coordinates: [  0.000000000000000,  0.666666666666667,  0.333333333333333 ]
    mass: 22.989769
    reduced_to: 1
  - symbol: Na # 17
    coordinates: [  0.333333333333333,  0.666666666666667,  0.333333333333333 ]
    mass: 22.989769
    reduced_to: 1
  - symbol: Na # 18
    coordinates: [  0.666666666666667,  0.666666666666667,  0.333333333333333 ]
    mass: 22.989769
    reduced_to: 1
  - symbol: Na # 19
    coordinates: [  0.000000000000000,  0.000000000000000,  0.666666666666667 ]
    mass: 22.989769
    reduced_to: 1
  - symbol: Na # 20
    coordinates: [  0.333333333333333,  0.000000000000000,  0.666666666666667 ]
    mass: 22.989769
    reduced_to: 1
  - symbol: Na # 21
    coordinates: [  0.666666666666667,  0.000000000000000,  0.666666666666667 ]
    mass: 22.989769
    reduced_to: 1
  - symbol: Na # 22
    coordinates: [  0.000000000000000,  0.333333333333333,  0.666666666666667 ]
    mass: 22.989769
    reduced_to: 1
  - symbol: Na # 23
    coordinates: [  0.333333333333333,  0.333333333333333,  0.666666666666667 ]
    mass: 22.989769
    reduced_to: 1
  - symbol: Na # 24
    coordinates: [  0.666666666666667,  0.333333333333333,  0.666666666666667 ]
    mass: 22.989769
    reduced_to: 1
  - symbol: Na # 25
    coordinates: [  0.000000000000000,  0.666666666666667,  0.666666666666667 ]
    mass: 22.989769
    reduced_to: 1
  - symbol: Na # 26
    coordinates: [  0.333333333333333,  0.666666666666667,  0.666666666666667 ]
    mass: 22.989769
    reduced_to: 1
  - symbol: Na # 27
    coordinates: [  0.666666666666667,  0.666666666666667,  0.666666666666667 ]
    mass: 22.989769
    reduced_to: 1
  - symbol: Na # 28
    coordinates: [  0.000000000000000,  0.166666666666667,  0.166666666666667 ]
    mass: 22.989769
    reduced_to: 1
  - symbol: Na # 29
    coordinates: [  0.333333333333333,  0.166666666666667,  0.166666666666667 ]
    mass: 22.989769
    reduced_to: 1
  - symbol: Na # 30
    coordinates: [  0.666666666666667,  0.166666666666667,  0.166666666666667 ]
    mass: 22.989769
    reduced_to: 1
  - symbol: Na # 31
    coordinates: [  0.000000000000000,  0.500000000000000,  0.166666666666667 ]
    mass: 22.989769
    reduced_to: 1
  - symbol: Na # 32
    coordinates: [  0.333333333333333,  0.500000000000000,  0.166666666666667 ]
    mass: 22.989769
    reduced_to: 1
  - symbol: Na # 33
    coordinates: [  0.666666666666667,  0.500000000000000,  0.166666666666667 ]
    mass: 22.989769
    reduced_to: 1
  - symbol: Na # 34
    coordinates: [  0.000000000000000,  0.833333333333333,  0.166666666666667 ]
    mass: 22.989769
    reduced_to: 1
  - symbol: Na # 35
    coordinates: [  0.333333333333333,  0.833333333333333,  0.166666666666667 ]
    mass: 22.989769
    reduced_to: 1
  - symbol: Na # 36
    coordinates: [  0.666666666666667,  0.833333333333333,  0.166666666666667 ]
    mass: 22.989769
    reduced_to: 1
  - symbol: Na # 37
    coordinates: [  0.000000000000000,  0.166666666666667,  0.500000000000000 ]
    mass: 22.989769
    reduced_to: 1
  - symbol: Na # 38
    coordinates: [  0.333333333333333,  0.166666666666667,  0.500000000000000 ]
    mass: 22.989769
    reduced_to: 1
  - symbol: Na # 39
    coordinates: [  0.666666666666667,  0.166666666666667,  0.500000000000000 ]
    mass: 22.989769
    reduced_to: 1
  - symbol: Na # 40
    coordinates: [  0.000000000000000,  0.500000000000000,  0.500000000000000 ]
    mass: 22.989769
    reduced_to: 1
  - symbol: Na # 41
    coordinates: [  0.333333333333333,  0.500000000000000,  0.500000000000000 ]
    mass: 22.989769
    reduced_to: 1
  - symbol: Na # 42
    coordinates: [  0.666666666666667,  0.500000000000000,  0.500000000000000 ]
    mass: 22.989769
    reduced_to: 1
  - symbol: Na # 43
    coordinates: [  0.000000000000000,  0.833333333333333,  0.500000000000000 ]
    mass: 22.989769
    reduced_to: 1
  - symbol: Na # 44
    coordinates: [  0.333333333333333,  0.833333333333333,  0.500000000000000 ]
    mass: 22.989769
    reduced_to: 1
  - symbol: Na # 45
    coordinates: [  0.666666666666667,  0.833333333333333,  0.500000000000000 ]
    mass: 22.989769
    reduced_to: 1
  - symbol: Na # 46
    coordinates: [  0.000000000000000,  0.166666666666667,  0.833333333333333 ]
    mass: 22.989769
    reduced_to: 1
  - symbol: Na # 47
    coordinates: [  0.333333333333333,  0.166666666666667,  0.833333333333333 ]
    mass: 22.989769
    reduced_to: 1
  - symbol: Na # 48
    coordinates: [  0.666666666666667,  0.166666666666667,  0.833333333333333 ]
    mass: 22.989769
    reduced_to: 1
  - symbol: Na # 49
    coordinates: [  0.000000000000000,  0.500000000000000,  0.833333333333333 ]
    mass: 22.989769
    reduced_to: 1
  - symbol: Na # 50
    coordinates: [  0.333333333333333,  0.500000000000000,  0.833333333333333 ]
    mass: 22.989769
    reduced_to: 1
  - symbol: Na # 51
    coordinates: [  0.666666666666667,  0.500000000000000,  0.833333333333333 ]
    mass: 22.989769
    reduced_to: 1
  - symbol: Na # 52
    coordinates: [  0.000000000000000,  0.833333333333333,  0.833333333333333 ]
    mass: 22.989769
    reduced_to: 1
  - symbol: Na # 53
    coordinates: [  0.333333333333333,  0.833333333333333,  0.833333333333333 ]
    mass: 22.989769
    reduced_to: 1
  - symbol: Na # 54
    coordinates: [  0.666666666666667,  0.833333333333333,  0.833333333333333 ]
    mass: 22.989769
    reduced_to: 1
  - symbol: Na # 55
    coordinates: [  0.166666666666667,  0.000000000000000,  0.166666666666667 ]
    mass: 22.989769
    reduced_to: 1
  - symbol: Na # 56
    coordinates: [  0.500000000000000,  0.000000000000000,  0.166666666666667 ]
    mass: 22.989769
    reduced_to: 1
  - symbol: Na # 57
    coordinates: [  0.833333333333333,  0.000000000000000,  0.166666666666667 ]
    mass: 22.989769
    reduced_to: 1
  - symbol: Na # 58
    coordinates: [  0.166666666666667,  0.333333333333333,  0.166666666666667 ]
    mass: 22.989769
    reduced_to: 1
  - symbol: Na # 59
    coordinates: [  0.500000000000000,  0.333333333333333,  0.166666666666667 ]
    mass: 22.989769
    reduced_to: 1
  - symbol: Na # 60
    coordinates: [  0.833333333333333,  0.333333333333333,  0.166666666666667 ]
    mass: 22.989769
    reduced_to: 1
  - symbol: Na # 61
    coordinates: [  0.166666666666667,  0.666666666666667,  0.166666666666667 ]
    mass: 22.989769
    reduced_to: 1
  - symbol: Na # 62
    coordinates: [  0.500000000000000,  0.666666666666667,  0.166666666666667 ]
    mass: 22.989769
    reduced_to: 1
  - symbol: Na # 63
    coordinates: [  0.833333333333333,  0.666666666666667,  0.166666666666667 ]
    mass: 22.989769
    reduced_to: 1
  - symbol: Na # 64
    coordinates: [  0.166666666666667,  0.000000000000000,  0.500000000000000 ]
    mass: 22.989769
    reduced_to: 1
  - symbol: Na # 65
    coordinates: [  0.500000000000000,  0.000000000000000,  0.500000000000000 ]
    mass: 22.989769
    reduced_to: 1
  - symbol: Na # 66
    coordinates: [  0.833333333333333,  0.000000000000000,  0.500000000000000 ]
    mass: 22.989769
    reduced_to: 1
  - symbol: Na # 67
    coordinates: [  0.166666666666667,  0.333333333333333,  0.500000000000000 ]
    mass: 22.989769
    reduced_to: 1
  - symbol: Na # 68
    coordinates: [  0.500000000000000,  0.333333333333333,  0.500000000000000 ]
    mass: 22.989769
    reduced_to: 1
  - symbol: Na # 69
    coordinates: [  0.833333333333333,  0.333333333333333,  0.500000000000000 ]
    mass: 22.989769
    reduced_to: 1
  - symbol: Na # 70
    coordinates: [  0.166666666666667,  0.666666666666667,  0.500000000000000 ]
    mass: 22.989769
    reduced_to: 1
  - symbol: Na # 71
    coordinates: [  0.500000000000000,  0.666666666666667,  0.500000000000000 ]
    mass: 22.989769
    reduced_to: 1
  - symbol: Na # 72
    coordinates: [  0.833333333333333,  0.666666666666667,  0.500000000000000 ]
    mass: 22.989769
    reduced_to: 1
  - symbol: Na # 73
    coordinates: [  0.166666666666667,  0.000000000000000,  0.833333333333333 ]
    mass: 22.989769
    reduced_to: 1
  - symbol: Na # 74
    coordinates: [  0.500000000000000,  0.000000000000000,  0.833333333333333 ]
    mass: 22.989769
    reduced_to: 1
  - symbol: Na # 75
    coordinates: [  0.833333333333333,  0.000000000000000,  0.833333333333333 ]
    mass: 22.989769
    reduced_to: 1
  - symbol: Na # 76
    coordinates: [  0.166666666666667,  0.333333333333333,  0.833333333333333 ]
    mass: 22.989769
    reduced_to: 1
  - symbol: Na # 77
    coordinates: [  0.500000000000000,  0.333333333333333,  0.833333333333333 ]
    mass: 22.989769
    reduced_to: 1
  - symbol: Na # 78
    coordinates: [  0.833333333333333,  0.333333333333333,  0.833333333333333 ]
    mass: 22.989769
    reduced_to: 1
  - symbol: Na # 79
    coordinates: [  0.166666666666667,  0.666666666666667,  0.833333333333333 ]
    mass: 22.989769
    reduced_to: 1
  - symbol: Na # 80
    coordinates: [  0.500000000000000,  0.666666666666667,  0.833333333333333 ]
    mass: 22.989769
    reduced_to: 1
  - symbol: Na # 81
    coordinates: [  0.833333333333333,  0.666666666666667,  0.833333333333333 ]
    mass: 22.989769
    reduced_to: 1
  - symbol: Na # 82
    coordinates: [  0.166666666666667,  0.166666666666667,  0.000000000000000 ]
    mass: 22.989769
    reduced_to: 1
  - symbol: Na # 83
    coordinates: [  0.500000000000000,  0.166666666666667,  0.000000000000000 ]
    mass: 22.989769
    reduced_to: 1
  - symbol: Na # 84
    coordinates: [  0.833333333333333,  0.166666666666667,  0.000000000000000 ]
    mass: 22.989769
    reduced_to: 1
  - symbol: Na # 85
    coordinates: [  0.166666666666667,  0.500000000000000,  0.000000000000000 ]
    mass: 22.989769
    reduced_to: 1
  - symbol: Na # 86
    coordinates: [  0.500000000000000,  0.500000000000000,  0.000000000000000 ]
    mass: 22.989769
    reduced_to: 1
  - symbol: Na # 87
    coordinates: [  0.833333333333333,  0.500000000000000,  0.000000000000000 ]
    mass: 22.989769
    reduced_to: 1
  - symbol: Na # 88
    coordinates: [  0.166666666666667,  0.833333333333333,  0.000000000000000 ]
    mass: 22.989769
    reduced_to: 1
  - symbol: Na # 89
    coordinates: [  0.500000000000000,  0.833333333333333,  0.000000000000000 ]
    mass: 22.989769
    reduced_to: 1
  - symbol: Na # 90
    coordinates: [  0.833333333333333,  0.833333333333333,  0.000000000000000 ]
    mass: 22.989769
    reduced_to: 1
  - symbol: Na # 91
    coordinates: [  0.166666666666667,  0.166666666666667,  0.333333333333333 ]
    mass: 22.989769
    reduced_to: 1
  - symbol: Na # 92
    coordinates: [  0.500000000000000,  0.166666666666667,  0.333333333333333 ]
    mass: 22.989769
    reduced_to: 1
  - symbol: Na # 93
    coordinates: [  0.833333333333333,  0.166666666666667,  0.333333333333333 ]
    mass: 22.989769
    reduced_to: 1
  - symbol: Na # 94
    coordinates: [  0.166666666666667,  0.500000000000000,  0.333333333333333 ]
    mass: 22.989769
    reduced_to: 1
  - symbol: Na # 95
    coordinates: [  0.500000000000000,  0.500000000000000,  0.333333333333333 ]
    mass: 22.989769
    reduced_to: 1
  - symbol: Na # 96
    coordinates: [  0.833333333333333,  0.500000000000000,  0.333333333333333 ]
    mass: 22.989769
    reduced_to: 1
  - symbol: Na # 97
    coordinates: [  0.166666666666667,  0.833333333333333,  0.333333333333333 ]
    mass: 22.989769
    reduced_to: 1
  - symbol: Na # 98
    coordinates: [  0.500000000000000,  0.833333333333333,  0.333333333333333 ]
    mass: 22.989769
    reduced_to: 1
  - symbol: Na # 99
    coordinates: [  0.833333333333333,  0.833333333333333,  0.333333333333333 ]
    mass: 22.989769
    reduced_to: 1
  - symbol: Na # 100
    coordinates: [  0.166666666666667,  0.166666666666667,  0.666666666666667 ]
    mass: 22.989769
    reduced_to: 1
  - symbol: Na # 101
    coordinates: [  0.500000000000000,  0.166666666666667,  0.666666666666667 ]
    mass: 22.989769
    reduced_to: 1
  - symbol: Na # 102
    coordinates: [  0.833333333333333,  0.166666666666667,  0.666666666666667 ]
    mass: 22.989769
    reduced_to: 1
  - symbol: Na # 103
    coordinates: [  0.166666666666667,  0.500000000000000,  0.666666666666667 ]
    mass: 22.989769
    reduced_to: 1
  - symbol: Na # 104
    coordinates: [  0.500000000000000,  0.500000000000000,  0.666666666666667 ]
    mass: 22.989769
    reduced_to: 1
  - symbol: Na # 105
    coordinates: [  0.833333333333333,  0.500000000000000,  0.666666666666667 ]
    mass: 22.989769
    reduced_to: 1
  - symbol: Na # 106
    coordinates: [  0.166666666666667,  0.833333333333333,  0.666666666666667 ]
    mass: 22.989769
    reduced_to: 1
  - symbol: Na # 107
    coordinates: [  0.500000000000000,  0.833333333333333,  0.666666666666667 ]
    mass: 22.989769
    reduced_to: 1
  - symbol: Na # 108
    coordinates: [  0.833333333333333,  0.833333333333333,  0.666666666666667 ]
    mass: 22.989769
    reduced_to: 1
  - symbol: Cl # 109
    coordinates: [  0.166666666666667,  0.166666666666667,  0.166666666666667 ]
    mass: 35.453000
    reduced_to: 109
  - symbol: Cl # 110
    coordinates: [  0.500000000000000,  0.166666666666667,  0.166666666666667 ]
    mass: 35.453000
    reduced_to: 109
  - symbol: Cl # 111
    coordinates: [  0.833333333333333,  0.166666666666667,  0.166666666666667 ]
    mass: 35.453000
    reduced_to: 109
  - symbol: Cl # 112
    coordinates: [  0.166666666666667,  0.500000000000000,  0.166666666666667 ]
    mass: 35.453000
    reduced_to: 109
  - symbol: Cl # 113
    coordinates: [  0.500000000000000,  0.500000000000000,  0.166666666666667 ]
    mass: 35.453000
    reduced_to: 109
  - symbol: Cl # 114
    coordinates: [  0.833333333333333,  0.500000000000000,  0.166666666666667 ]
    mass: 35.453000
    reduced_to: 109
  - symbol: Cl # 115
    coordinates: [  0.166666666666667,  0.833333333333333,  0.166666666666667 ]
    mass: 35.453000
    reduced_to: 109
  - symbol: Cl # 116
    coordinates: [  0.500000000000000,  0.833333333333333,  0.166666666666667 ]
    mass: 35.453000
    reduced_to: 109
  - symbol: Cl # 117
    coordinates: [  0.833333333333333,  0.833333333333333,  0.166666666666667 ]
    mass: 35.453000
    reduced_to: 109
  - symbol: Cl # 118
    coordinates: [  0.166666666666667,  0.166666666666667,  0.500000000000000 ]
    mass: 35.453000
    reduced_to: 109
  - symbol: Cl # 119
    coordinates: [  0.500000000000000,  0.166666666666667,  0.500000000000000 ]
    mass: 35.453000
    reduced_to: 109
  - symbol: Cl # 120
    coordinates: [  0.833333333333333,  0.166666666666667,  0.500000000000000 ]
    mass: 35.453000
    reduced_to: 109
  - symbol: Cl # 121
    coordinates: [  0.166666666666667,  0.500000000000000,  0.500000000000000 ]
    mass: 35.453000
    reduced_to: 109
  - symbol: Cl # 122
    coordinates: [  0.500000000000000,  0.500000000000000,  0.500000000000000 ]
    mass: 35.453000
    reduced_to: 109
  - symbol: Cl # 123
    coordinates: [  0.833333333333333,  0.500000000000000,  0.500000000000000 ]
    mass: 35.453000
    reduced_to: 109
  - symbol: Cl # 124
    coordinates: [  0.166666666666667,  0.833333333333333,  0.500000000000000 ]
    mass: 35.453000
    reduced_to: 109
  - symbol: Cl # 125
    coordinates: [  0.500000000000000,  0.833333333333333,  0.500000000000000 ]
    mass: 35.453000
    reduced_to: 109
  - symbol: Cl # 126
    coordinates: [  0.833333333333333,  0.833333333333333,  0.500000000000000 ]
    mass: 35.453000
    reduced_to: 109
  - symbol: Cl # 127
    coordinates: [  0.166666666666667,  0.166666666666667,  0.833333333333333 ]
    mass: 35.453000
    reduced_to: 109
  - symbol: Cl # 128
    coordinates: [  0.500000000000000,  0.166666666666667,  0.833333333333333 ]
    mass: 35.453000
    reduced_to: 109
  - symbol: Cl # 129
    coordinates: [  0.833333333333333,  0.166666666666667,  0.833333333333333 ]
    mass: 35.453000
    reduced_to: 109
  - symbol: Cl # 130
    coordinates: [  0.166666666666667,  0.500000000000000,  0.833333333333333 ]
    mass: 35.453000
    reduced_to: 109
  - symbol: Cl # 131
    coordinates: [  0.500000000000000,  0.500000000000000,  0.833333333333333 ]
    mass: 35.453000
    reduced_to: 109
  - symbol: Cl # 132
    coordinates: [  0.833333333333333,  0.500000000000000,  0.833333333333333 ]
    mass: 35.453000
    reduced_to: 109
  - symbol: Cl # 133
    coordinates: [  0.166666666666667,  0.833333333333333,  0.833333333333333 ]
    mass: 35.453000
    reduced_to: 109
  - symbol: Cl # 134
    coordinates: [  0.500000000000000,  0.833333333333333,  0.833333333333333 ]
    mass: 35.453000
    reduced_to: 109
  - symbol: Cl # 135
    coordinates: [  0.833333333333333,  0.833333333333333,  0.833333333333333 ]
    mass: 35.453000
    reduced_to: 109
  - symbol: Cl # 136
    coordinates: [  0.166666666666667,  0.000000000000000,  0.000000000000000 ]
    mass: 35.453000
    reduced_to: 109
  - symbol: Cl # 137
    coordinates: [  0.500000000000000,  0.000000000000000,  0.000000000000000 ]
    mass: 35.453000
    reduced_to: 109
  - symbol: Cl # 138
    coordinates: [  0.833333333333333,  0.000000000000000,  0.000000000000000 ]
    mass: 35.453000
    reduced_to: 109
  - symbol: Cl # 139
    coordinates: [  0.166666666666667,  0.333333333333333,  0.000000000000000 ]
    mass: 35.453000
    reduced_to: 109
  - symbol: Cl # 140
    coordinates: [  0.500000000000000,  0.333333333333333,  0.000000000000000 ]
    mass: 35.453000
    reduced_to: 109
  - symbol: Cl # 141
    coordinates: [  0.833333333333333,  0.333333333333333,  0.000000000000000 ]
    mass: 35.453000
    reduced_to: 109
  - symbol: Cl # 142
    coordinates: [  0.166666666666667,  0.666666666666667,  0.000000000000000 ]
    mass: 35.453000
    reduced_to: 109
  - symbol: Cl # 143
    coordinates: [  0.500000000000000,  0.666666666666667,  0.000000000000000 ]
    mass: 35.453000
    reduced_to: 109
  - symbol: Cl # 144
    coordinates: [  0.833333333333333,  0.666666666666667,  0.000000000000000 ]
    mass: 35.453000
    reduced_to: 109
  - symbol: Cl # 145
    coordinates: [  0.166666666666667,  0.000000000000000,  0.333333333333333 ]
    mass: 35.453000
    reduced_to: 109
  - symbol: Cl # 146
    coordinates: [  0.500000000000000,  0.000000000000000,  0.333333333333333 ]
    mass: 35.453000
    reduced_to: 109
  - symbol: Cl # 147
    coordinates: [  0.833333333333333,  0.000000000000000,  0.333333333333333 ]
    mass: 35.453000
    reduced_to: 109
  - symbol: Cl # 148
    coordinates: [  0.166666666666667,  0.333333333333333,  0.333333333333333 ]
    mass: 35.453000
    reduced_to: 109
  - symbol: Cl # 149
    coordinates: [  0.500000000000000,  0.333333333333333,  0.333333333333333 ]
    mass: 35.453000
    reduced_to: 109
  - symbol: Cl # 150
    coordinates: [  0.833333333333333,  0.333333333333333,  0.333333333333333 ]
    mass: 35.453000
    reduced_to: 109
  - symbol: Cl # 151
    coordinates: [  0.166666666666667,  0.666666666666667,  0.333333333333333 ]
    mass: 35.453000
    reduced_to: 109
  - symbol: Cl # 152
    coordinates: [  0.500000000000000,  0.666666666666667,  0.333333333333333 ]
    mass: 35.453000
    reduced_to: 109
  - symbol: Cl # 153
    coordinates: [  0.833333333333333,  0.666666666666667,  0.333333333333333 ]
    mass: 35.453000
    reduced_to: 109
  - symbol: Cl # 154
    coordinates: [  0.166666666666667,  0.000000000000000,  0.666666666666667 ]
    mass: 35.453000
    reduced_to: 109
  - symbol: Cl # 155
    coordinates: [  0.500000000000000,  0.000000000000000,  0.666666666666667 ]
    mass: 35.453000
    reduced_to: 109
  - symbol: Cl # 156
    coordinates: [  0.833333333333333,  0.000000000000000,  0.666666666666667 ]
    mass: 35.453000
    reduced_to: 109
  - symbol: Cl # 157
    coordinates: [  0.166666666666667,  0.333333333333333,  0.666666666666667 ]
    mass: 35.453000
    reduced_to: 109
  - symbol: Cl # 158
    coordinates: [  0.500000000000000,  0.333333333333333,  0.666666666666667 ]
    mass: 35.453000
    reduced_to: 109
  - symbol: Cl # 159
    coordinates: [  0.833333333333333,  0.333333333333333,  0.666666666666667 ]
    mass: 35.453000
    reduced_to: 109
  - symbol: Cl # 160
    coordinates: [  0.166666666666667,  0.666666666666667,  0.666666666666667 ]
    mass: 35.453000
    reduced_to: 109
  - symbol: Cl # 161
    coordinates: [  0.500000000000000,  0.666666666666667,  0.666666666666667 ]
    mass: 35.453000
    reduced_to: 109
  - symbol: Cl # 162
    coordinates: [  0.833333333333333,  0.666666666666667,  0.666666666666667 ]
    mass: 35.453000
    reduced_to: 109
  - symbol: Cl # 163
    coordinates: [  0.000000000000000,  0.166666666666667,  0.000000000000000 ]
    mass: 35.453000
    reduced_to: 109
  - symbol: Cl # 164
    coordinates: [  0.333333333333333,  0.166666666666667,  0.000000000000000 ]
    mass: 35.453000
    reduced_to: 109
  - symbol: Cl # 165
    coordinates: [  0.666666666666667,  0.166666666666667,  0.000000000000000 ]
    mass: 35.453000
    reduced_to: 109
  - symbol: Cl # 166
    coordinates: [  0.000000000000000,  0.500000000000000,  0.000000000000000 ]
    mass: 35.453000
    reduced_to: 109
  - symbol: Cl # 167
    coordinates: [  0.333333333333333,  0.500000000000000,  0.000000000000000 ]
    mass: 35.453000
    reduced_to: 109
  - symbol: Cl # 168
    coordinates: [  0.666666666666667,  0.500000000000000,  0.000000000000000 ]
    mass: 35.453000
    reduced_to: 109
  - symbol: Cl # 169
    coordinates: [  0.000000000000000,  0.833333333333333,  0.000000000000000 ]
    mass: 35.453000
    reduced_to: 109
  - symbol: Cl # 170
    coordinates: [  0.333333333333333,  0.833333333333333,  0.000000000000000 ]
    mass: 35.453000
    reduced_to: 109
  - symbol: Cl # 171
    coordinates: [  0.666666666666667,  0.833333333333333,  0.000000000000000 ]
    mass: 35.453000
    reduced_to: 109
  - symbol: Cl # 172
    coordinates: [  0.000000000000000,  0.166666666666667,  0.333333333333333 ]
    mass: 35.453000
    reduced_to: 109
  - symbol: Cl # 173
    coordinates: [  0.333333333333333,  0.166666666666667,  0.333333333333333 ]
    mass: 35.453000
    reduced_to: 109
  - symbol: Cl # 174
    coordinates: [  0.666666666666667,  0.166666666666667,  0.333333333333333 ]
    mass: 35.453000
    reduced_to: 109
  - symbol: Cl # 175
    coordinates: [  0.000000000000000,  0.500000000000000,  0.333333333333333 ]
    mass: 35.453000
    reduced_to: 109
  - symbol: Cl # 176
    coordinates: [  0.333333333333333,  0.500000000000000,  0.333333333333333 ]
    mass: 35.453000
    reduced_to: 109
  - symbol: Cl # 177
    coordinates: [  0.666666666666667,  0.500000000000000,  0.333333333333333 ]
    mass: 35.453000
    reduced_to: 109
  - symbol: Cl # 178
    coordinates: [  0.000000000000000,  0.833333333333333,  0.333333333333333 ]
    mass: 35.453000
    reduced_to: 109
  - symbol: Cl # 179
    coordinates: [  0.333333333333333,  0.833333333333333,  0.333333333333333 ]
    mass: 35.453000
    reduced_to: 109
  - symbol: Cl # 180
    coordinates: [  0.666666666666667,  0.833333333333333,  0.333333333333333 ]
    mass: 35.453000
    reduced_to: 109
  - symbol: Cl # 181
    coordinates: [  0.000000000000000,  0.166666666666667,  0.666666666666667 ]
    mass: 35.453000
    reduced_to: 109
  - symbol: Cl # 182
    coordinates: [  0.333333333333333,  0.166666666666667,  0.666666666666667 ]
    mass: 35.453000
    reduced_to: 109
  - symbol: Cl # 183
    coordinates: [  0.666666666666667,  0.166666666666667,  0.666666666666667 ]
    mass: 35.453000
    reduced_to: 109
  - symbol: Cl # 184
    coordinates: [  0.000000000000000,  0.500000000000000,  0.666666666666667 ]
    mass: 35.453000
    reduced_to: 109
  - symbol: Cl # 185
    coordinates: [  0.333333333333333,  0.500000000000000,  0.666666666666667 ]
    mass: 35.453000
    reduced_to: 109
  - symbol: Cl # 186
    coordinates: [  0.666666666666667,  0.500000000000000,  0.666666666666667 ]
    mass: 35.453000
    reduced_to: 109
  - symbol: Cl # 187
    coordinates: [  0.000000000000000,  0.833333333333333,  0.666666666666667 ]
    mass: 35.453000
    reduced_to: 109
  - symbol: Cl # 188
    coordinates: [  0.333333333333333,  0.833333333333333,  0.666666666666667 ]
    mass: 35.453000
    reduced_to: 109
  - symbol: Cl # 189
    coordinates: [  0.666666666666667,  0.833333333333333,  0.666666666666667 ]
    mass: 35.453000
    reduced_to: 109
  - symbol: Cl # 190
    coordinates: [  0.000000000000000,  0.000000000000000,  0.166666666666667 ]
    mass: 35.453000
    reduced_to: 109
  - symbol: Cl # 191
    coordinates: [  0.333333333333333,  0.000000000000000,  0.166666666666667 ]
    mass: 35.453000
    reduced_to: 109
  - symbol: Cl # 192
    coordinates: [  0.666666666666667,  0.000000000000000,  0.166666666666667 ]
    mass: 35.453000
    reduced_to: 109