natom:   16
displacements:
- atom:    1
  direction:
    [   0.0000000000000000,  0.0000000000000000,  1.0000000000000000 ]
  displacement:
    [   0.0049988799210436,  0.0028861046679332,  0.0081658801963243 ]
- atom:    1
  direction:
    [   0.0000000000000000,  0.0000000000000000, -1.0000000000000000 ]
  displacement:
    [  -0.0049988799210436, -0.0028861046679332, -0.0081658801963243 ]
lattice:
- [     7.724393390000000,     0.000000000000000,     0.000000000000000 ] # a
- [     3.862196696000000,     6.689520906000000,    -0.000000000000000 ] # b
- [     3.862196696000000,     2.229840302000000,     6.309060432000000 ] # c
points:
- symbol: Si # 1
  coordinates: [  0.499999999500000,  0.499999999500000,  0.000000001000000 ]
  mass: 28.085500
- symbol: Si # 2
  coordinates: [  0.999999999500000,  0.499999999500000,  0.000000001000000 ]
  mass: 28.085500
- symbol: Si # 3
  coordinates: [  0.499999999500000,  0.999999999500000,  0.000000001000000 ]
  mass: 28.085500
- symbol: Si # 4
  coordinates: [  0.999999999500000,  0.999999999500000,  0.000000001000000 ]
  mass: 28.085500
- symbol: Si # 5
  coordinates: [  0.499999999500000,  0.499999999500000,  0.500000001000000 ]
  mass: 28.085500
- symbol: Si # 6
  coordinates: [  0.999999999500000,  0.499999999500000,  0.500000001000000 ]
  mass: 28.085500
- symbol: Si # 7
  coordinates: [  0.499999999500000,  0.999999999500000,  0.500000001000000 ]
  mass: 28.085500
- symbol: Si # 8
  coordinates: [  0.999999999500000,  0.999999999500000,  0.500000001000000 ]
  mass: 28.085500
- symbol: Si # 9
  coordinates: [  0.125000049000000,  0.125000049000000,  0.124999853500000 ]
  mass: 28.085500
- symbol: Si # 10
  coordinates: [  0.625000049000000,  0.125000049000000,  0.124999853500000 ]
  mass: 28.085500
- symbol: Si # 11
  coordinates: [  0.125000049000000,  0.625000049000000,  0.124999853500000 ]
  mass: 28.085500
- symbol: Si # 12
  coordinates: [  0.625000049000000,  0.625000049000000,  0.124999853500000 ]
  mass: 28.085500
- symbol: Si # 13
  coordinates: [  0.125000049000000,  0.125000049000000,  0.624999853500000 ]
  mass: 28.085500
- symbol: Si # 14
  coordinates: [  0.625000049000000,  0.125000049000000,  0.624999853500000 ]
  mass: 28.085500
- symbol: Si # 15
  coordinates: [  0.125000049000000,  0.625000049000000,  0.624999853500000 ]
  mass: 28.085500
- symbol: Si # 16
  coordinates: [  0.625000049000000,  0.625000049000000,  0.624999853500000 ]
  mass: 28.085500